 TITLE ="GEORGIA TECH TEST PIT GRID (linear elastic)                                     "
 VARIABLES = "R","Z","DISP_R","DISP_Z","EPSR","EPSTH","EPSZ","EPSRZ","SIGMAR","SIGMATH","SIGMAZ","SIGMARZ"
 ZONE T="GEOMETRY & DISP", N=  475, E=  140, F=FEPOINT, ET=QUADRILATERAL
  0.00000000  0.00000000  0.00000000  0.00000000     0.0000000     0.0000000    -0.0001599     0.0000000    -3.4259300    -3.4259300    -5.1388947     0.0000000
  0.69999999  0.00000000  0.00000000  0.00000000     0.0000000     0.0000000    -0.0001599     0.0000019    -3.4261735    -3.4261735    -5.1392600     0.0102822
  1.39999998  0.00000000  0.00000000  0.00000000     0.0000000     0.0000000    -0.0001598     0.0000038    -3.4252053    -3.4252053    -5.1378076     0.0205482
  2.97499990  0.00000000  0.00000000  0.00000000     0.0000000     0.0000000    -0.0001598     0.0000081    -3.4243366    -3.4243366    -5.1365045     0.0435370
  4.55000019  0.00000000  0.00000000  0.00000000     0.0000000     0.0000000    -0.0001595     0.0000124    -3.4174400    -3.4174400    -5.1261596     0.0661891
  7.05000019  0.00000000  0.00000000  0.00000000     0.0000000     0.0000000    -0.0001591     0.0000189    -3.4085572    -3.4085572    -5.1128355     0.1011797
  9.55000019  0.00000000  0.00000000  0.00000000     0.0000000     0.0000000    -0.0001580     0.0000251    -3.3859554    -3.3859554    -5.0789328     0.1342870
 13.55000019  0.00000000  0.00000000  0.00000000     0.0000000     0.0000000    -0.0001569     0.0000339    -3.3613486    -3.3613486    -5.0420225     0.1818112
 17.54999924  0.00000000  0.00000000  0.00000000     0.0000000     0.0000000    -0.0001546     0.0000413    -3.3119515    -3.3119515    -4.9679270     0.2212883
 25.04999924  0.00000000  0.00000000  0.00000000     0.0000000     0.0000000    -0.0001496     0.0000499    -3.2053604    -3.2053604    -4.8080403     0.2675631
 32.54999924  0.00000000  0.00000000  0.00000000     0.0000000     0.0000000    -0.0001450     0.0000528    -3.1080044    -3.1080044    -4.6620063     0.2827762
 42.54999924  0.00000000  0.00000000  0.00000000     0.0000000     0.0000000    -0.0001361     0.0000463    -2.9161141    -2.9161141    -4.3741709     0.2477915
 52.54999924  0.00000000  0.00000000  0.00000000     0.0000000     0.0000000    -0.0001323     0.0000353    -2.8350314    -2.8350314    -4.2525469     0.1891892
 65.05000305  0.00000000  0.00000000  0.00000000     0.0000000     0.0000000    -0.0001273     0.0000173    -2.7280441    -2.7280441    -4.0920659     0.0925629
 77.55000305  0.00000000  0.00000000  0.00000000     0.0000000     0.0000000    -0.0001265     0.0000000    -2.7107321    -2.7107321    -4.0660979     0.0000000
  0.00000000 10.00000000  0.00000000 -0.00171632     0.0000254     0.0000254    -0.0001834    -0.0000002    -2.5684163    -2.5684163    -4.8055536    -0.0010290
  1.39999998 10.00000000  0.00003552 -0.00171546     0.0000254     0.0000254    -0.0001832     0.0000044    -2.5680044    -2.5679293    -4.8031152     0.0236521
  4.55000019 10.00000000  0.00011426 -0.00170709     0.0000247     0.0000251    -0.0001819     0.0000145    -2.5677688    -2.5629693    -4.7813558     0.0778477
  9.55000019 10.00000000  0.00023087 -0.00167616     0.0000220     0.0000242    -0.0001772     0.0000292    -2.5739493    -2.5501224    -4.7079272     0.1566637
 17.54999924 10.00000000  0.00037672 -0.00159282     0.0000141     0.0000215    -0.0001640     0.0000476    -2.6018471    -2.5227256    -4.5099274     0.2552267
 32.54999924 10.00000000  0.00046605 -0.00139292    -0.0000028     0.0000143    -0.0001335     0.0000543    -2.6433277    -2.4604272    -4.0446631     0.2906459
 52.54999924 10.00000000  0.00030328 -0.00119822    -0.0000126     0.0000058    -0.0001073     0.0000307    -2.5829154    -2.3856244    -3.5975687     0.1643547
 77.55000305 10.00000000  0.00000000 -0.00112909    -0.0000115     0.0000000    -0.0000993    -0.0000006    -2.4986394    -2.3751633    -3.4392685    -0.0031197
  0.00000000 20.00000000  0.00000000 -0.00366776     0.0000468     0.0000468    -0.0003153     0.0000004    -2.2788677    -2.2788677    -4.6458469     0.0013655
  0.69999999 20.00000000  0.00003270 -0.00366694     0.0000467     0.0000467    -0.0003152     0.0000061    -2.2802716    -2.2799451    -4.6459936     0.0183645
  1.39999998 20.00000000  0.00006535 -0.00366499     0.0000466     0.0000467    -0.0003149     0.0000124    -2.2783526    -2.2781086    -4.6421785     0.0375180
  2.97499990 20.00000000  0.00013827 -0.00365468     0.0000459     0.0000465    -0.0003139     0.0000256    -2.2829515    -2.2786272    -4.6336357     0.0774695
  4.55000019 20.00000000  0.00020993 -0.00363875     0.0000452     0.0000461    -0.0003119     0.0000390    -2.2787056    -2.2715082    -4.6112183     0.1181505
  7.05000019 20.00000000  0.00031956 -0.00359797     0.0000424     0.0000453    -0.0003074     0.0000586    -2.2907833    -2.2691590    -4.5719649     0.1768206
  9.55000019 20.00000000  0.00042216 -0.00354440     0.0000397     0.0000442    -0.0003007     0.0000776    -2.2835015    -2.2499631    -4.5017808     0.2350697
 13.55000019 20.00000000  0.00056647 -0.00342383     0.0000323     0.0000418    -0.0002884     0.0001018    -2.3104018    -2.2392838    -4.3852135     0.3077586
 17.54999924 20.00000000  0.00068074 -0.00328013     0.0000244     0.0000388    -0.0002728     0.0001213    -2.3227373    -2.2147910    -4.2324464     0.3676475
 25.04999924 20.00000000  0.00080260 -0.00297120     0.0000085     0.0000320    -0.0002363     0.0001290    -2.3013707    -2.1249480    -3.8520506     0.3905239
 32.54999924 20.00000000  0.00080850 -0.00267088    -0.0000066     0.0000248    -0.0002063     0.0001213    -2.3285393    -2.0927057    -3.5552402     0.3660512
 42.54999924 20.00000000  0.00070175 -0.00235717    -0.0000151     0.0000165    -0.0001716     0.0000886    -2.2033076    -1.9664856    -3.1458277     0.2704929
 52.54999924 20.00000000  0.00050682 -0.00214687    -0.0000227     0.0000096    -0.0001514     0.0000548    -2.1933096    -1.9507722    -2.9367890     0.1653105
 65.05000305 20.00000000  0.00024582 -0.00202475    -0.0000203     0.0000038    -0.0001404     0.0000243    -2.0861868    -1.9057987    -2.7775087     0.0742368
 77.55000305 20.00000000  0.00000000 -0.00198633    -0.0000191     0.0000000    -0.0001363    -0.0000003    -2.0604762    -1.9175328    -2.7333556    -0.0010280
  0.00000000 25.00000000  0.00000000 -0.00593044     0.0000927     0.0000927    -0.0004814    -0.0000001    -2.1396526    -2.1396526    -4.6001493    -0.0002775
  1.39999998 25.00000000  0.00012950 -0.00592489     0.0000925     0.0000925    -0.0004807     0.0000198    -2.1386160    -2.1385383    -4.5952719     0.0423586
  4.55000019 25.00000000  0.00041536 -0.00587296     0.0000891     0.0000913    -0.0004743     0.0000636    -2.1377218    -2.1282169    -4.5521309     0.1362051
  9.55000019 25.00000000  0.00082804 -0.00568436     0.0000759     0.0000867    -0.0004509     0.0001258    -2.1463014    -2.0998898    -4.4040160     0.2696606
 17.54999924 25.00000000  0.00129945 -0.00518356     0.0000389     0.0000740    -0.0003892     0.0001921    -2.2009669    -2.0504283    -4.0357431     0.4115909
 32.54999924 25.00000000  0.00141305 -0.00406019    -0.0000222     0.0000434    -0.0002653     0.0001694    -2.1874893    -1.9061381    -3.2290325     0.3630652
 52.54999924 25.00000000  0.00078110 -0.00316802    -0.0000376     0.0000149    -0.0001880     0.0000660    -1.9680214    -1.7430938    -2.6126716     0.1414656
 77.55000305 25.00000000  0.00000000 -0.00291643    -0.0000268     0.0000000    -0.0001717    -0.0000004    -1.8159467    -1.7010654    -2.4367167    -0.0009240
  0.00000000 30.00000000  0.00000000 -0.00848181     0.0001328     0.0001328    -0.0005367     0.0000002    -1.7538910    -1.7538910    -4.6230574     0.0003867
  0.69999999 30.00000000  0.00009285 -0.00847938     0.0001325     0.0001326    -0.0005364     0.0000121    -1.7574131    -1.7567060    -4.6240976     0.0259265
  1.39999998 30.00000000  0.00018548 -0.00847234     0.0001324     0.0001325    -0.0005357     0.0000245    -1.7535275    -1.7532011    -4.6167460     0.0524089
  2.97499990 30.00000000  0.00039201 -0.00843844     0.0001296     0.0001318    -0.0005323     0.0000513    -1.7670055    -1.7577287    -4.6038577     0.1100144
  4.55000019 30.00000000  0.00059373 -0.00838167     0.0001270     0.0001305    -0.0005265     0.0000781    -1.7619982    -1.7470019    -4.5628708     0.1674617
  7.05000019 30.00000000  0.00089888 -0.00824346     0.0001167     0.0001275    -0.0005129     0.0001167    -1.8035401    -1.7571797    -4.5019287     0.2501156
  9.55000019 30.00000000  0.00117715 -0.00805363     0.0001054     0.0001233    -0.0004936     0.0001542    -1.8190378    -1.7426373    -4.3864870     0.3303925
 13.55000019 30.00000000  0.00154364 -0.00765139     0.0000783     0.0001139    -0.0004536     0.0001943    -1.9049462    -1.7522952    -4.1846160     0.4163668
 17.54999924 30.00000000  0.00180358 -0.00717211     0.0000478     0.0001028    -0.0004079     0.0002283    -2.0005801    -1.7649713    -3.9533676     0.4892567
 25.04999924 30.00000000  0.00197789 -0.00618034     0.0000026     0.0000790    -0.0003144     0.0002134    -1.9854287    -1.6580280    -3.3440044     0.4573298
 32.54999924 30.00000000  0.00184204 -0.00532352    -0.0000381     0.0000566    -0.0002420     0.0001740    -2.0786853    -1.6729125    -2.9524615     0.3727771
 42.54999924 30.00000000  0.00143266 -0.00450485    -0.0000445     0.0000337    -0.0001854     0.0001089    -1.8723763    -1.5374137    -2.4762073     0.2332805
 52.54999924 30.00000000  0.00095228 -0.00402725    -0.0000487     0.0000181    -0.0001560     0.0000528    -1.8074970    -1.5212446    -2.2674352     0.1131150
 65.05000305 30.00000000  0.00042825 -0.00377571    -0.0000381     0.0000066    -0.0001451     0.0000215    -1.6766471    -1.4851851    -2.1350658     0.0460307
 77.55000305 30.00000000  0.00000000 -0.00370285    -0.0000304     0.0000000    -0.0001428    -0.0000013    -1.6151290    -1.4847222    -2.0966766    -0.0028243
  0.00000000 33.00000000  0.00000000 -0.01015279     0.0001586     0.0001586    -0.0005798     0.0000000    -1.5716622    -1.5716622    -4.7362317    -0.0000772
  1.39999998 33.00000000  0.00022140 -0.01013991     0.0001582     0.0001581    -0.0005786     0.0000313    -1.5703530    -1.5704586    -4.7279895     0.0671088
  4.55000019 33.00000000  0.00070830 -0.01001813     0.0001513     0.0001557    -0.0005671     0.0001004    -1.5815656    -1.5626625    -4.6601358     0.2150579
  9.55000019 33.00000000  0.00139511 -0.00957508     0.0001229     0.0001461    -0.0005238     0.0001987    -1.6570821    -1.5578758    -4.4288863     0.4257947
 17.54999924 33.00000000  0.00209727 -0.00840372     0.0000473     0.0001195    -0.0004116     0.0002786    -1.8952288    -1.5858528    -3.8619384     0.5969293
 32.54999924 33.00000000  0.00204116 -0.00602228    -0.0000493     0.0000627    -0.0002220     0.0001822    -1.9985900    -1.5186634    -2.7386948     0.3904309
 52.54999924 33.00000000  0.00100343 -0.00447048    -0.0000520     0.0000191    -0.0001392     0.0000429    -1.6982152    -1.3933536    -2.0715910     0.0919073
 77.55000305 33.00000000  0.00000000 -0.00410930    -0.0000312     0.0000000    -0.0001283    -0.0000017    -1.5002448    -1.3667419    -1.9166100    -0.0037028
  0.00000000 36.00000000  0.00000000 -0.01196071     0.0001888     0.0001888    -0.0006251     0.0000000    -1.3112043    -1.3112043    -4.7993169     0.0000895
  0.69999999 36.00000000  0.00013199 -0.01195652     0.0001883     0.0001886    -0.0006247     0.0000195    -1.3173515    -1.3161894    -4.8015652     0.0417133
  1.39999998 36.00000000  0.00026361 -0.01194400     0.0001881     0.0001883    -0.0006236     0.0000391    -1.3118586    -1.3112498    -4.7906417     0.0837207
  2.97499990 36.00000000  0.00055658 -0.01188492     0.0001835     0.0001871    -0.0006185     0.0000825    -1.3390227    -1.3235720    -4.7762095     0.1768361
  4.55000019 36.00000000  0.00084158 -0.01178412     0.0001790     0.0001850    -0.0006095     0.0001256    -1.3371554    -1.3116082    -4.7162902     0.2691949
  7.05000019 36.00000000  0.00126736 -0.01153868     0.0001610     0.0001798    -0.0005877     0.0001881    -1.4262761    -1.3460280    -4.6353151     0.4030158
  9.55000019 36.00000000  0.00164679 -0.01119653     0.0001403     0.0001724    -0.0005562     0.0002492    -1.4853540    -1.3477123    -4.4705130     0.5340520
 13.55000019 36.00000000  0.00211109 -0.01047590     0.0000940     0.0001558    -0.0004891     0.0002990    -1.6485178    -1.3836692    -4.1476548     0.6407773
 17.54999924 36.00000000  0.00239881 -0.00964161     0.0000431     0.0001367    -0.0004172     0.0003357    -1.8496798    -1.4487302    -3.8224098     0.7194262
 25.04999924 36.00000000  0.00248196 -0.00799316    -0.0000142     0.0000991    -0.0002897     0.0002743    -1.8172138    -1.3316124    -2.9980227     0.5878314
 32.54999924 36.00000000  0.00218541 -0.00665531    -0.0000622     0.0000671    -0.0002013     0.0001911    -1.9496172    -1.3954241    -2.5460442     0.4094823
 42.54999924 36.00000000  0.00159533 -0.00549634    -0.0000585     0.0000375    -0.0001457     0.0000998    -1.6801618    -1.2686469    -2.0538513     0.2137506
 52.54999924 36.00000000  0.00101487 -0.00486221    -0.0000542     0.0000193    -0.0001217     0.0000327    -1.5750585    -1.2598547    -1.8642645     0.0699885
 65.05000305 36.00000000  0.00044299 -0.00455458    -0.0000406     0.0000068    -0.0001143     0.0000119    -1.4433976    -1.2402344    -1.7593391     0.0254948
 77.55000305 36.00000000  0.00000000 -0.00447266    -0.0000303     0.0000000    -0.0001137    -0.0000025    -1.3642299    -1.2344399    -1.7218699    -0.0053028
  0.00000000 38.00000000  0.00000000 -0.01326140     0.0002138     0.0002138    -0.0006760    -0.0000001    -1.2139951    -1.2139951    -5.0273765    -0.0001418
  1.39999998 38.00000000  0.00029826 -0.01324126     0.0002131     0.0002130    -0.0006742     0.0000482    -1.2129364    -1.2132770    -5.0159176     0.1032874
  4.55000019 38.00000000  0.00095089 -0.01304952     0.0002017     0.0002090    -0.0006567     0.0001552    -1.2438485    -1.2128353    -4.9230307     0.3326112
  9.55000019 38.00000000  0.00184334 -0.01234053     0.0001530     0.0001930    -0.0005887     0.0003061    -1.4241727    -1.2527800    -4.6030690     0.6560120
 17.54999924 38.00000000  0.00261718 -0.01047772     0.0000338     0.0001491    -0.0004154     0.0003853    -1.8483030    -1.3539674    -3.7735180     0.8255831
 32.54999924 38.00000000  0.00225608 -0.00704216    -0.0000714     0.0000693    -0.0001842     0.0001927    -1.9026590    -1.2997392    -2.3863588     0.4130055
 52.54999924 38.00000000  0.00100034 -0.00509485    -0.0000541     0.0000190    -0.0001112     0.0000249    -1.4851808    -1.1718840    -1.7300699     0.0533564
 77.55000305 38.00000000  0.00000000 -0.00469132    -0.0000291     0.0000000    -0.0001051    -0.0000028    -1.2753827    -1.1506431    -1.6012251    -0.0060941
  0.00000000 40.00000000  0.00000000 -0.01466483     0.0002455     0.0002455    -0.0007285     0.0000000    -0.9838009    -0.9838009    -5.1582476     0.0000856
  0.69999999 40.00000000  0.00017154 -0.01465885     0.0002446     0.0002451    -0.0007280     0.0000294    -0.9944062    -0.9925048    -5.1627472     0.0629804
  1.39999998 40.00000000  0.00034246 -0.01464096     0.0002445     0.0002446    -0.0007263     0.0000586    -0.9856514    -0.9849681    -5.1460053     0.1256408
  2.97499990 40.00000000  0.00072201 -0.01455667     0.0002368     0.0002427    -0.0007188     0.0001246    -1.0363300    -1.0109980    -5.1315528     0.2669477
  4.55000019 40.00000000  0.00108832 -0.01441102     0.0002292     0.0002392    -0.0007051     0.0001893    -1.0460425    -1.0033576    -5.0502344     0.4057201
  7.05000019 40.00000000  0.00162531 -0.01405368     0.0001995     0.0002305    -0.0006709     0.0002814    -1.2090475    -1.0760376    -4.9391589     0.6029156
  9.55000019 40.00000000  0.00208585 -0.01355139     0.0001653     0.0002184    -0.0006225     0.0003707    -1.3376398    -1.1102213    -4.7141182     0.7944620
 13.55000019 40.00000000  0.00259964 -0.01249148     0.0000951     0.0001919    -0.0005180     0.0004203    -1.5721974    -1.1576246    -4.1996961     0.9006044
 17.54999924 40.00000000  0.00284682 -0.01130335     0.0000208     0.0001622    -0.0004132     0.0004414    -1.8833932    -1.2773862    -3.7432561     0.9459175
 25.04999924 40.00000000  0.00275803 -0.00909499    -0.0000368     0.0001101    -0.0002615     0.0003222    -1.7708466    -1.1411414    -2.7335218     0.6904541
 32.54999924 40.00000000  0.00229437 -0.00739224    -0.0000817     0.0000705    -0.0001664     0.0001939    -1.8724908    -1.2203758    -2.2357630     0.4154211
 42.54999924 40.00000000  0.00157998 -0.00602203    -0.0000663     0.0000371    -0.0001175     0.0000873    -1.5416307    -1.0981596    -1.7607549     0.1870831
 52.54999924 40.00000000  0.00096749 -0.00530704    -0.0000532     0.0000184    -0.0001006     0.0000164    -1.3885611    -1.0817434    -1.5919596     0.0350861
 65.05000305 40.00000000  0.00041184 -0.00497566    -0.0000387     0.0000063    -0.0000961     0.0000045    -1.2669028    -1.0739144    -1.5128494     0.0097092
 77.55000305 40.00000000  0.00000000 -0.00489321    -0.0000272     0.0000000    -0.0000967    -0.0000034    -1.1784177    -1.0618711    -1.4762601    -0.0072012
  0.00000000 41.00000000  0.00000000 -0.01541455     0.0002652     0.0002652    -0.0007698    -0.0000002    -0.9141918    -0.9141918    -5.3499841    -0.0004892
  1.39999998 41.00000000  0.00036984 -0.01538818     0.0002642     0.0002642    -0.0007673     0.0000674    -0.9154894    -0.9157213    -5.3363674     0.1444231
  4.55000019 41.00000000  0.00117310 -0.01513479     0.0002460     0.0002578    -0.0007422     0.0002173    -0.9891180    -0.9382485    -5.2238693     0.4657462
  9.55000019 41.00000000  0.00222687 -0.01418497     0.0001708     0.0002332    -0.0006443     0.0004180    -1.3277908    -1.0605151    -4.8211928     0.8957504
 17.54999924 41.00000000  0.00297206 -0.01171611     0.0000109     0.0001693    -0.0004094     0.0004732    -1.9180532    -1.2388122    -3.7192034     1.0139414
 32.54999924 41.00000000  0.00230265 -0.00755419    -0.0000864     0.0000707    -0.0001569     0.0001918    -1.8495855    -1.1759532    -2.1514274     0.4109524
 52.54999924 41.00000000  0.00094378 -0.00540501    -0.0000522     0.0000180    -0.0000956     0.0000119    -1.3375129    -1.0366751    -1.5235709     0.0255078
 77.55000305 41.00000000  0.00000000 -0.00498791    -0.0000261     0.0000000    -0.0000928    -0.0000036    -1.1306472    -1.0188145    -1.4163890    -0.0076933
  0.00000000 42.00000000  0.00000000 -0.01620437     0.0002888     0.0002888    -0.0008093    -0.0000006    -0.7476142    -0.7476142    -5.4539256    -0.0011926
  0.69999999 42.00000000  0.00020174 -0.01619737     0.0002876     0.0002882    -0.0008084     0.0000383    -0.7618906    -0.7591797    -5.4590751     0.0820813
  1.39999998 42.00000000  0.00040260 -0.01617558     0.0002875     0.0002876    -0.0008061     0.0000764    -0.7478367    -0.7476458    -5.4348063     0.1636120
  2.97499990 42.00000000  0.00084768 -0.01607357     0.0002764     0.0002849    -0.0007962     0.0001622    -0.8283871    -0.7920022    -5.4256525     0.3476135
  4.55000019 42.00000000  0.00127340 -0.01589533     0.0002650     0.0002799    -0.0007775     0.0002456    -0.8590701    -0.7951755    -5.3268916     0.5262307
  7.05000019 42.00000000  0.00188480 -0.01545635     0.0002233     0.0002673    -0.0007306     0.0003601    -1.0993313    -0.9107540    -5.1877608     0.7716951
  9.55000019 42.00000000  0.00239013 -0.01484001     0.0001757     0.0002503    -0.0006665     0.0004670    -1.3081459    -0.9886186    -4.9175301     1.0007595
 13.55000019 42.00000000  0.00290858 -0.01354210     0.0000887     0.0002147    -0.0005322     0.0005081    -1.5813090    -1.0415337    -4.2423570     1.0888830
 17.54999924 42.00000000  0.00309979 -0.01212217    -0.0000008     0.0001766    -0.0004054     0.0005070    -1.9707030    -1.2104605    -3.7048433     1.0863462
 25.04999924 42.00000000  0.00286834 -0.00959665    -0.0000533     0.0001145    -0.0002411     0.0003431    -1.7702361    -1.0510902    -2.5750576     0.7352141
 32.54999924 42.00000000  0.00230035 -0.00770598    -0.0000915     0.0000707    -0.0001471     0.0001899    -1.8316914    -1.1367181    -2.0701729     0.4069438
 42.54999924 42.00000000  0.00153010 -0.00624289    -0.0000692     0.0000360    -0.0001034     0.0000781    -1.4683305    -1.0174768    -1.6147624     0.1672987
 52.54999924 42.00000000  0.00091557 -0.00549834    -0.0000510     0.0000174    -0.0000907     0.0000071    -1.2842538    -0.9908010    -1.4540904     0.0151908
 65.05000305 42.00000000  0.00038398 -0.00515957    -0.0000366     0.0000059    -0.0000877     0.0000008    -1.1720930    -0.9898409    -1.3910516     0.0017606
 77.55000305 42.00000000  0.00000000 -0.00507874    -0.0000248     0.0000000    -0.0000889    -0.0000039    -1.0806822    -0.9743372    -1.3551607    -0.0082528
  0.00000000 43.00000000  0.00000000 -0.01704311     0.0003180     0.0003180    -0.0008687     0.0000001    -0.6331554    -0.6331554    -5.7190244     0.0001580
  1.39999998 43.00000000  0.00044258 -0.01701042     0.0003161     0.0003161    -0.0008650     0.0000905    -0.6398065    -0.6398425    -5.7017035     0.1938265
  4.55000019 43.00000000  0.00139382 -0.01669766     0.0002874     0.0003063    -0.0008285     0.0002911    -0.7813779    -0.7000230    -5.5636900     0.6236922
  9.55000019 43.00000000  0.00257530 -0.01551926     0.0001786     0.0002697    -0.0006913     0.0005323    -1.3178513    -0.9276362    -5.0462144     1.1405942
 17.54999924 43.00000000  0.00323577 -0.01252471    -0.0000158     0.0001844    -0.0003970     0.0005405    -2.0253997    -1.1675416    -3.6590708     1.1582349
 32.54999924 43.00000000  0.00228941 -0.00784829    -0.0000958     0.0000703    -0.0001371     0.0001852    -1.8037380    -1.0917312    -1.9806178     0.3968341
 52.54999924 43.00000000  0.00088209 -0.00558654    -0.0000495     0.0000168    -0.0000860     0.0000023    -1.2305262    -0.9463060    -1.3870239     0.0049643
 77.55000305 43.00000000  0.00000000 -0.00516573    -0.0000235     0.0000000    -0.0000852    -0.0000041    -1.0315289    -0.9309861    -1.2959364    -0.0087850
  0.00000000 44.00000000  0.00000000 -0.01794187     0.0003542     0.0003542    -0.0009266     0.0000005    -0.3528761    -0.3528761    -5.8421066     0.0011150
  0.69999999 44.00000000  0.00024709 -0.01793260     0.0003518     0.0003530    -0.0009257     0.0000535    -0.3854800    -0.3803658    -5.8603274     0.1146004
  1.39999998 44.00000000  0.00049252 -0.01790553     0.0003514     0.0003518    -0.0009220     0.0001058    -0.3688125    -0.3672070    -5.8261982     0.2266578
  2.97499990 44.00000000  0.00103369 -0.01777736     0.0003338     0.0003475    -0.0009068     0.0002243    -0.5032104    -0.4445050    -5.8199183     0.4805484
  4.55000019 44.00000000  0.00154386 -0.01755237     0.0003133     0.0003393    -0.0008790     0.0003374    -0.5981668    -0.4864896    -5.7077146     0.7229986
  7.05000019 44.00000000  0.00224692 -0.01699448     0.0002500     0.0003187    -0.0008074     0.0004808    -0.9741880    -0.6798078    -5.5060118     1.0302791
  9.55000019 44.00000000  0.00279398 -0.01622269     0.0001798     0.0002926    -0.0007180     0.0006028    -1.3344004    -0.8513216    -5.1823527     1.2916148
 13.55000019 44.00000000  0.00328271 -0.01461860     0.0000723     0.0002423    -0.0005434     0.0006181    -1.6518687    -0.9234461    -4.2907460     1.3245721
 17.54999924 44.00000000  0.00337239 -0.01291613    -0.0000333     0.0001922    -0.0003888     0.0005783    -2.1142972    -1.1479596    -3.6379868     1.2392842
 25.04999924 44.00000000  0.00294883 -0.01005461    -0.0000738     0.0001177    -0.0002171     0.0003600    -1.8001405    -0.9794633    -2.4142817     0.7713985
 32.54999924 44.00000000  0.00226578 -0.00798012    -0.0001003     0.0000696    -0.0001268     0.0001804    -1.7804875    -1.0521047    -1.8939143     0.3865684
 42.54999924 44.00000000  0.00144878 -0.00643567    -0.0000711     0.0000340    -0.0000894     0.0000668    -1.3883217    -0.9377802    -1.4668633     0.1432420
 52.54999924 44.00000000  0.00084424 -0.00567043    -0.0000477     0.0000161    -0.0000814    -0.0000028    -1.1736671    -0.9003016    -1.3180677    -0.0060910
 65.05000305 44.00000000  0.00034813 -0.00532706    -0.0000338     0.0000054    -0.0000798    -0.0000031    -1.0719710    -0.9043089    -1.2690769    -0.0065752
 77.55000305 44.00000000  0.00000000 -0.00524905    -0.0000219     0.0000000    -0.0000815    -0.0000044    -0.9803838    -0.8863927    -1.2355981    -0.0093729
  0.00000000 45.00000000  0.00000000 -0.01891583     0.0004007     0.0004007    -0.0010234    -0.0000011    -0.1847977    -0.1847977    -6.2882786    -0.0023285
  1.39999998 45.00000000  0.00055731 -0.01887384     0.0003976     0.0003981    -0.0010179     0.0001343    -0.2010552    -0.1989608    -6.2675714     0.2877066
  4.55000019 45.00000000  0.00172977 -0.01846908     0.0003451     0.0003802    -0.0009564     0.0004208    -0.5013035    -0.3511747    -6.0791792     0.9016117
  9.55000019 45.00000000  0.00304918 -0.01695502     0.0001744     0.0003193    -0.0007442     0.0006979    -1.3991245    -0.7783160    -5.3359481     1.4954987
 17.54999924 45.00000000  0.00351820 -0.01329942    -0.0000547     0.0002005    -0.0003748     0.0006126    -2.1973120    -1.1036940    -3.5689280     1.3126508
 32.54999924 45.00000000  0.00223154 -0.00810196    -0.0001036     0.0000686    -0.0001166     0.0001725    -1.7440784    -1.0062820    -1.7999845     0.3695433
 52.54999924 45.00000000  0.00080086 -0.00574954    -0.0000456     0.0000152    -0.0000771    -0.0000079    -1.1167018    -0.8559501    -1.2517739    -0.0168745
 77.55000305 45.00000000  0.00000000 -0.00532879    -0.0000203     0.0000000    -0.0000780    -0.0000046    -0.9301892    -0.8430092    -1.1773338    -0.0099471
  0.00000000 46.00000000  0.00000000 -0.01998868     0.0004619     0.0004619    -0.0013763    -0.0000029    -0.8807289    -0.8807289    -6.5170278    -0.0047195
  0.69999999 46.00000000  0.00032228 -0.01997789     0.0004589     0.0004604    -0.0013745     0.0001231    -0.9092595    -0.9045542    -6.5315923     0.1756340
  1.39999998 46.00000000  0.00064251 -0.01994139     0.0004573     0.0004589    -0.0013666     0.0002463    -0.8906698    -0.8854529    -6.4859603     0.3527899
  2.97499990 46.00000000  0.00133693 -0.01976669     0.0004232     0.0004494    -0.0013367     0.0005131    -1.0816360    -0.9974226    -6.4675201     0.7335259
  4.55000019 46.00000000  0.00197554 -0.01946510     0.0003824     0.0004342    -0.0012824     0.0007541    -1.2368044    -1.0702667    -6.3234521     1.0850471
  7.05000019 46.00000000  0.00279166 -0.01871238     0.0002759     0.0003960    -0.0011453     0.0010292    -1.6531437    -1.2671836    -5.9695937     1.4661803
  9.55000019 46.00000000  0.00335506 -0.01771101     0.0001647     0.0003513    -0.0009918     0.0011997    -2.0495085    -1.4496077    -5.5268116     1.7161051
 13.55000019 46.00000000  0.00374038 -0.01570936     0.0000381     0.0002760    -0.0007131     0.0011312    -2.0898742    -1.3251118    -4.3283867     1.6179620
 17.54999924 46.00000000  0.00366000 -0.01366564    -0.0000799     0.0002085    -0.0005015     0.0009690    -2.3455472    -1.4184450    -3.5467181     1.3830290
 25.04999924 46.00000000  0.00298510 -0.01045907    -0.0000985     0.0001192    -0.0002733     0.0005541    -1.7589025    -1.0592271    -2.2297781     0.7930472
 32.54999924 46.00000000  0.00218233 -0.00821340    -0.0001069     0.0000670    -0.0001726     0.0002438    -1.5675610    -1.0083250    -1.7075129     0.3482888
 42.54999924 46.00000000  0.00133349 -0.00660093    -0.0000714     0.0000313    -0.0001271     0.0000793    -1.1938910    -0.8634974    -1.3174209     0.1129710
 52.54999924 46.00000000  0.00075334 -0.00582467    -0.0000431     0.0000143    -0.0001186    -0.0000188    -0.9886888    -0.8039749    -1.1825240    -0.0267601
 65.05000305 46.00000000  0.00030450 -0.00547916    -0.0000301     0.0000047    -0.0001171    -0.0000108    -0.9174509    -0.8055473    -1.1490788    -0.0153874
 77.55000305 46.00000000  0.00000000 -0.00540507    -0.0000186     0.0000000    -0.0001177    -0.0000049    -0.8435284    -0.7837859    -1.1159364    -0.0079239
  0.00000000 47.00000000  0.00000000 -0.02180921     0.0006699     0.0006699    -0.0020107    -0.0000024    -1.4395283    -1.4395283    -7.1837253    -0.0025895
  1.39999998 47.00000000  0.00092223 -0.02174474     0.0006553     0.0006587    -0.0019907     0.0003961    -1.4959656    -1.4885526    -7.1659447     0.4244182
  4.55000019 47.00000000  0.00278127 -0.02113701     0.0005163     0.0006113    -0.0018148     0.0011741    -1.8388417    -1.6353304    -6.8339976     1.2579965
  9.55000019 47.00000000  0.00447984 -0.01896365     0.0001464     0.0004691    -0.0012895     0.0016969    -2.5749477    -1.8833896    -5.6517227     1.8180829
 17.54999924 47.00000000  0.00440793 -0.01429177    -0.0001461     0.0002512    -0.0006069     0.0012598    -2.4635459    -1.6123248    -3.4509960     1.3498327
 32.54999924 47.00000000  0.00227020 -0.00843962    -0.0001262     0.0000697    -0.0002135     0.0002951    -1.4271854    -1.0073373    -1.6142449     0.3161989
 52.54999924 47.00000000  0.00068812 -0.00598407    -0.0000422     0.0000131    -0.0001548    -0.0000316    -0.8784594    -0.7600083    -1.1197704    -0.0338458