# vtk DataFile Version 2.0
./vtk
ASCII

DATASET UNSTRUCTURED_GRID
POINTS 16865 double
0 0 0.0
1 0 0.0
2 0 0.0
3 0 0.0
4 0 0.0
5 0 0.0
6 0 0.0
7 0 0.0
8 0 0.0
9 0 0.0
10 0 0.0
11 0 0.0
12 0 0.0
13 0 0.0
14 0 0.0
15 0 0.0
16 0 0.0
17 0 0.0
18 0 0.0
19 0 0.0
20 0 0.0
21 0 0.0
22 0 0.0
23 0 0.0
24 0 0.0
25 0 0.0
26 0 0.0
27 0 0.0
28 0 0.0
29 0 0.0
30 0 0.0
31 0 0.0
32 0 0.0
33 0 0.0
34 0 0.0
35 0 0.0
36 0 0.0
37 0 0.0
38 0 0.0
39 0 0.0
40 0 0.0
41 0 0.0
42 0 0.0
43 0 0.0
44 0 0.0
45 0 0.0
46 0 0.0
47 0 0.0
48 0 0.0
49 0 0.0
50 0 0.0
51 0 0.0
52 0 0.0
53 0 0.0
54 0 0.0
55 0 0.0
56 0 0.0
57 0 0.0
58 0 0.0
59 0 0.0
60 0 0.0
61 0 0.0
62 0 0.0
63 0 0.0
64 0 0.0
65 0 0.0
66 0 0.0
67 0 0.0
68 0 0.0
69 0 0.0
70 0 0.0
71 0 0.0
72 0 0.0
73 0 0.0
74 0 0.0
75 0 0.0
76 0 0.0
77 0 0.0
78 0 0.0
79 0 0.0
80 0 0.0
81 0 0.0
82 0 0.0
83 0 0.0
84 0 0.0
85 0 0.0
86 0 0.0
87 0 0.0
88 0 0.0
89 0 0.0
90 0 0.0
91 0 0.0
92 0 0.0
93 0 0.0
94 0 0.0
95 0 0.0
96 0 0.0
97 0 0.0
98 0 0.0
99 0 0.0
100 0 0.0
101 0 0.0
102 0 0.0
103 0 0.0
104 0 0.0
105 0 0.0
106 0 0.0
107 0 0.0
108 0 0.0
109 0 0.0
110 0 0.0
111 0 0.0
112 0 0.0
113 0 0.0
114 0 0.0
115 0 0.0
116 0 0.0
117 0 0.0
118 0 0.0
119 0 0.0
120 0 0.0
0 -0.0952 0.0
2 -0.0952 0.0
4 -0.0952 0.0
6 -0.0952 0.0
8 -0.0952 0.0
10 -0.0952 0.0
12 -0.0952 0.0
14 -0.0952 0.0
16 -0.0952 0.0
18 -0.0952 0.0
20 -0.0952 0.0
22 -0.0952 0.0
24 -0.0952 0.0
26 -0.0952 0.0
28 -0.0952 0.0
30 -0.0952 0.0
32 -0.0952 0.0
34 -0.0952 0.0
36 -0.0952 0.0
38 -0.0952 0.0
40 -0.0952 0.0
42 -0.0952 0.0
44 -0.0952 0.0
46 -0.0952 0.0
48 -0.0952 0.0
50 -0.0952 0.0
52 -0.0952 0.0
54 -0.0952 0.0
56 -0.0952 0.0
58 -0.0952 0.0
60 -0.0952 0.0
62 -0.0952 0.0
64 -0.0952 0.0
66 -0.0952 0.0
68 -0.0952 0.0
70 -0.0952 0.0
72 -0.0952 0.0
74 -0.0952 0.0
76 -0.0952 0.0
78 -0.0952 0.0
80 -0.0952 0.0
82 -0.0952 0.0
84 -0.0952 0.0
86 -0.0952 0.0
88 -0.0952 0.0
90 -0.0952 0.0
92 -0.0952 0.0
94 -0.0952 0.0
96 -0.0952 0.0
98 -0.0952 0.0
100 -0.0952 0.0
102 -0.0952 0.0
104 -0.0952 0.0
106 -0.0952 0.0
108 -0.0952 0.0
110 -0.0952 0.0
112 -0.0952 0.0
114 -0.0952 0.0
116 -0.0952 0.0
118 -0.0952 0.0
120 -0.0952 0.0
0 -0.1905 0.0
1 -0.1905 0.0
2 -0.1905 0.0
3 -0.1905 0.0
4 -0.1905 0.0
5 -0.1905 0.0
6 -0.1905 0.0
7 -0.1905 0.0
8 -0.1905 0.0
9 -0.1905 0.0
10 -0.1905 0.0
11 -0.1905 0.0
12 -0.1905 0.0
13 -0.1905 0.0
14 -0.1905 0.0
15 -0.1905 0.0
16 -0.1905 0.0
17 -0.1905 0.0
18 -0.1905 0.0
19 -0.1905 0.0
20 -0.1905 0.0
21 -0.1905 0.0
22 -0.1905 0.0
23 -0.1905 0.0
24 -0.1905 0.0
25 -0.1905 0.0
26 -0.1905 0.0
27 -0.1905 0.0
28 -0.1905 0.0
29 -0.1905 0.0
30 -0.1905 0.0
31 -0.1905 0.0
32 -0.1905 0.0
33 -0.1905 0.0
34 -0.1905 0.0
35 -0.1905 0.0
36 -0.1905 0.0
37 -0.1905 0.0
38 -0.1905 0.0
39 -0.1905 0.0
40 -0.1905 0.0
41 -0.1905 0.0
42 -0.1905 0.0
43 -0.1905 0.0
44 -0.1905 0.0
45 -0.1905 0.0
46 -0.1905 0.0
47 -0.1905 0.0
48 -0.1905 0.0
49 -0.1905 0.0
50 -0.1905 0.0
51 -0.1905 0.0
52 -0.1905 0.0
53 -0.1905 0.0
54 -0.1905 0.0
55 -0.1905 0.0
56 -0.1905 0.0
57 -0.1905 0.0
58 -0.1905 0.0
59 -0.1905 0.0
60 -0.1905 0.0
61 -0.1905 0.0
62 -0.1905 0.0
63 -0.1905 0.0
64 -0.1905 0.0
65 -0.1905 0.0
66 -0.1905 0.0
67 -0.1905 0.0
68 -0.1905 0.0
69 -0.1905 0.0
70 -0.1905 0.0
71 -0.1905 0.0
72 -0.1905 0.0
73 -0.1905 0.0
74 -0.1905 0.0
75 -0.1905 0.0
76 -0.1905 0.0
77 -0.1905 0.0
78 -0.1905 0.0
79 -0.1905 0.0
80 -0.1905 0.0
81 -0.1905 0.0
82 -0.1905 0.0
83 -0.1905 0.0
84 -0.1905 0.0
85 -0.1905 0.0
86 -0.1905 0.0
87 -0.1905 0.0
88 -0.1905 0.0
89 -0.1905 0.0
90 -0.1905 0.0
91 -0.1905 0.0
92 -0.1905 0.0
93 -0.1905 0.0
94 -0.1905 0.0
95 -0.1905 0.0
96 -0.1905 0.0
97 -0.1905 0.0
98 -0.1905 0.0
99 -0.1905 0.0
100 -0.1905 0.0
101 -0.1905 0.0
102 -0.1905 0.0
103 -0.1905 0.0
104 -0.1905 0.0
105 -0.1905 0.0
106 -0.1905 0.0
107 -0.1905 0.0
108 -0.1905 0.0
109 -0.1905 0.0
110 -0.1905 0.0
111 -0.1905 0.0
112 -0.1905 0.0
113 -0.1905 0.0
114 -0.1905 0.0
115 -0.1905 0.0
116 -0.1905 0.0
117 -0.1905 0.0
118 -0.1905 0.0
119 -0.1905 0.0
120 -0.1905 0.0
0 -0.2857 0.0
2 -0.2857 0.0
4 -0.2857 0.0
6 -0.2857 0.0
8 -0.2857 0.0
10 -0.2857 0.0
12 -0.2857 0.0
14 -0.2857 0.0
16 -0.2857 0.0
18 -0.2857 0.0
20 -0.2857 0.0
22 -0.2857 0.0
24 -0.2857 0.0
26 -0.2857 0.0
28 -0.2857 0.0
30 -0.2857 0.0
32 -0.2857 0.0
34 -0.2857 0.0
36 -0.2857 0.0
38 -0.2857 0.0
40 -0.2857 0.0
42 -0.2857 0.0
44 -0.2857 0.0
46 -0.2857 0.0
48 -0.2857 0.0
50 -0.2857 0.0
52 -0.2857 0.0
54 -0.2857 0.0
56 -0.2857 0.0
58 -0.2857 0.0
60 -0.2857 0.0
62 -0.2857 0.0
64 -0.2857 0.0
66 -0.2857 0.0
68 -0.2857 0.0
70 -0.2857 0.0
72 -0.2857 0.0
74 -0.2857 0.0
76 -0.2857 0.0
78 -0.2857 0.0
80 -0.2857 0.0
82 -0.2857 0.0
84 -0.2857 0.0
86 -0.2857 0.0
88 -0.2857 0.0
90 -0.2857 0.0
92 -0.2857 0.0
94 -0.2857 0.0
96 -0.2857 0.0
98 -0.2857 0.0
100 -0.2857 0.0
102 -0.2857 0.0
104 -0.2857 0.0
106 -0.2857 0.0
108 -0.2857 0.0
110 -0.2857 0.0
112 -0.2857 0.0
114 -0.2857 0.0
116 -0.2857 0.0
118 -0.2857 0.0
120 -0.2857 0.0
0 -0.381 0.0
1 -0.381 0.0
2 -0.381 0.0
3 -0.381 0.0
4 -0.381 0.0
5 -0.381 0.0
6 -0.381 0.0
7 -0.381 0.0
8 -0.381 0.0
9 -0.381 0.0
10 -0.381 0.0
11 -0.381 0.0
12 -0.381 0.0
13 -0.381 0.0
14 -0.381 0.0
15 -0.381 0.0
16 -0.381 0.0
17 -0.381 0.0
18 -0.381 0.0
19 -0.381 0.0
20 -0.381 0.0
21 -0.381 0.0
22 -0.381 0.0
23 -0.381 0.0
24 -0.381 0.0
25 -0.381 0.0
26 -0.381 0.0
27 -0.381 0.0
28 -0.381 0.0
29 -0.381 0.0
30 -0.381 0.0
31 -0.381 0.0
32 -0.381 0.0
33 -0.381 0.0
34 -0.381 0.0
35 -0.381 0.0
36 -0.381 0.0
37 -0.381 0.0
38 -0.381 0.0
39 -0.381 0.0
40 -0.381 0.0
41 -0.381 0.0
42 -0.381 0.0
43 -0.381 0.0
44 -0.381 0.0
45 -0.381 0.0
46 -0.381 0.0
47 -0.381 0.0
48 -0.381 0.0
49 -0.381 0.0
50 -0.381 0.0
51 -0.381 0.0
52 -0.381 0.0
53 -0.381 0.0
54 -0.381 0.0
55 -0.381 0.0
56 -0.381 0.0
57 -0.381 0.0
58 -0.381 0.0
59 -0.381 0.0
60 -0.381 0.0
61 -0.381 0.0
62 -0.381 0.0
63 -0.381 0.0
64 -0.381 0.0
65 -0.381 0.0
66 -0.381 0.0
67 -0.381 0.0
68 -0.381 0.0
69 -0.381 0.0
70 -0.381 0.0
71 -0.381 0.0
72 -0.381 0.0
73 -0.381 0.0
74 -0.381 0.0
75 -0.381 0.0
76 -0.381 0.0
77 -0.381 0.0
78 -0.381 0.0
79 -0.381 0.0
80 -0.381 0.0
81 -0.381 0.0
82 -0.381 0.0
83 -0.381 0.0
84 -0.381 0.0
85 -0.381 0.0
86 -0.381 0.0
87 -0.381 0.0
88 -0.381 0.0
89 -0.381 0.0
90 -0.381 0.0
91 -0.381 0.0
92 -0.381 0.0
93 -0.381 0.0
94 -0.381 0.0
95 -0.381 0.0
96 -0.381 0.0
97 -0.381 0.0
98 -0.381 0.0
99 -0.381 0.0
100 -0.381 0.0
101 -0.381 0.0
102 -0.381 0.0
103 -0.381 0.0
104 -0.381 0.0
105 -0.381 0.0
106 -0.381 0.0
107 -0.381 0.0
108 -0.381 0.0
109 -0.381 0.0
110 -0.381 0.0
111 -0.381 0.0
112 -0.381 0.0
113 -0.381 0.0
114 -0.381 0.0
115 -0.381 0.0
116 -0.381 0.0
117 -0.381 0.0
118 -0.381 0.0
119 -0.381 0.0
120 -0.381 0.0
0 -0.4762 0.0
2 -0.4762 0.0
4 -0.4762 0.0
6 -0.4762 0.0
8 -0.4762 0.0
10 -0.4762 0.0
12 -0.4762 0.0
14 -0.4762 0.0
16 -0.4762 0.0
18 -0.4762 0.0
20 -0.4762 0.0
22 -0.4762 0.0
24 -0.4762 0.0
26 -0.4762 0.0
28 -0.4762 0.0
30 -0.4762 0.0
32 -0.4762 0.0
34 -0.4762 0.0
36 -0.4762 0.0
38 -0.4762 0.0
40 -0.4762 0.0
42 -0.4762 0.0
44 -0.4762 0.0
46 -0.4762 0.0
48 -0.4762 0.0
50 -0.4762 0.0
52 -0.4762 0.0
54 -0.4762 0.0
56 -0.4762 0.0
58 -0.4762 0.0
60 -0.4762 0.0
62 -0.4762 0.0
64 -0.4762 0.0
66 -0.4762 0.0
68 -0.4762 0.0
70 -0.4762 0.0
72 -0.4762 0.0
74 -0.4762 0.0
76 -0.4762 0.0
78 -0.4762 0.0
80 -0.4762 0.0
82 -0.4762 0.0
84 -0.4762 0.0
86 -0.4762 0.0
88 -0.4762 0.0
90 -0.4762 0.0
92 -0.4762 0.0
94 -0.4762 0.0
96 -0.4762 0.0
98 -0.4762 0.0
100 -0.4762 0.0
102 -0.4762 0.0
104 -0.4762 0.0
106 -0.4762 0.0
108 -0.4762 0.0
110 -0.4762 0.0
112 -0.4762 0.0
114 -0.4762 0.0
116 -0.4762 0.0
118 -0.4762 0.0
120 -0.4762 0.0
0 -0.5714 0.0
1 -0.5714 0.0
2 -0.5714 0.0
3 -0.5714 0.0
4 -0.5714 0.0
5 -0.5714 0.0
6 -0.5714 0.0
7 -0.5714 0.0
8 -0.5714 0.0
9 -0.5714 0.0
10 -0.5714 0.0
11 -0.5714 0.0
12 -0.5714 0.0
13 -0.5714 0.0
14 -0.5714 0.0
15 -0.5714 0.0
16 -0.5714 0.0
17 -0.5714 0.0
18 -0.5714 0.0
19 -0.5714 0.0
20 -0.5714 0.0
21 -0.5714 0.0
22 -0.5714 0.0
23 -0.5714 0.0
24 -0.5714 0.0
25 -0.5714 0.0
26 -0.5714 0.0
27 -0.5714 0.0
28 -0.5714 0.0
29 -0.5714 0.0
30 -0.5714 0.0
31 -0.5714 0.0
32 -0.5714 0.0
33 -0.5714 0.0
34 -0.5714 0.0
35 -0.5714 0.0
36 -0.5714 0.0
37 -0.5714 0.0
38 -0.5714 0.0
39 -0.5714 0.0
40 -0.5714 0.0
41 -0.5714 0.0
42 -0.5714 0.0
43 -0.5714 0.0
44 -0.5714 0.0
45 -0.5714 0.0
46 -0.5714 0.0
47 -0.5714 0.0
48 -0.5714 0.0
49 -0.5714 0.0
50 -0.5714 0.0
51 -0.5714 0.0
52 -0.5714 0.0
53 -0.5714 0.0
54 -0.5714 0.0
55 -0.5714 0.0
56 -0.5714 0.0
57 -0.5714 0.0
58 -0.5714 0.0
59 -0.5714 0.0
60 -0.5714 0.0
61 -0.5714 0.0
62 -0.5714 0.0
63 -0.5714 0.0
64 -0.5714 0.0
65 -0.5714 0.0
66 -0.5714 0.0
67 -0.5714 0.0
68 -0.5714 0.0
69 -0.5714 0.0
70 -0.5714 0.0
71 -0.5714 0.0
72 -0.5714 0.0
73 -0.5714 0.0
74 -0.5714 0.0
75 -0.5714 0.0
76 -0.5714 0.0
77 -0.5714 0.0
78 -0.5714 0.0
79 -0.5714 0.0
80 -0.5714 0.0
81 -0.5714 0.0
82 -0.5714 0.0
83 -0.5714 0.0
84 -0.5714 0.0
85 -0.5714 0.0
86 -0.5714 0.0
87 -0.5714 0.0
88 -0.5714 0.0
89 -0.5714 0.0
90 -0.5714 0.0
91 -0.5714 0.0
92 -0.5714 0.0
93 -0.5714 0.0
94 -0.5714 0.0
95 -0.5714 0.0
96 -0.5714 0.0
97 -0.5714 0.0
98 -0.5714 0.0
99 -0.5714 0.0
100 -0.5714 0.0
101 -0.5714 0.0
102 -0.5714 0.0
103 -0.5714 0.0
104 -0.5714 0.0
105 -0.5714 0.0
106 -0.5714 0.0
107 -0.5714 0.0
108 -0.5714 0.0
109 -0.5714 0.0
110 -0.5714 0.0
111 -0.5714 0.0
112 -0.5714 0.0
113 -0.5714 0.0
114 -0.5714 0.0
115 -0.5714 0.0
116 -0.5714 0.0
117 -0.5714 0.0
118 -0.5714 0.0
119 -0.5714 0.0
120 -0.5714 0.0
0 -0.6667 0.0
2 -0.6667 0.0
4 -0.6667 0.0
6 -0.6667 0.0
8 -0.6667 0.0
10 -0.6667 0.0
12 -0.6667 0.0
14 -0.6667 0.0
16 -0.6667 0.0
18 -0.6667 0.0
20 -0.6667 0.0
22 -0.6667 0.0
24 -0.6667 0.0
26 -0.6667 0.0
28 -0.6667 0.0
30 -0.6667 0.0
32 -0.6667 0.0
34 -0.6667 0.0
36 -0.6667 0.0
38 -0.6667 0.0
40 -0.6667 0.0
42 -0.6667 0.0
44 -0.6667 0.0
46 -0.6667 0.0
48 -0.6667 0.0
50 -0.6667 0.0
52 -0.6667 0.0
54 -0.6667 0.0
56 -0.6667 0.0
58 -0.6667 0.0
60 -0.6667 0.0
62 -0.6667 0.0
64 -0.6667 0.0
66 -0.6667 0.0
68 -0.6667 0.0
70 -0.6667 0.0
72 -0.6667 0.0
74 -0.6667 0.0
76 -0.6667 0.0
78 -0.6667 0.0
80 -0.6667 0.0
82 -0.6667 0.0
84 -0.6667 0.0
86 -0.6667 0.0
88 -0.6667 0.0
90 -0.6667 0.0
[...]
POINT_DATA 16865
SCALARS Displacement_R double 1
LOOKUP_TABLE default
0
0.000601442
0.00119877
0.00178807
0.0023649
0.00292339
0.0034585
0.00396134
0.00442524
0.00483818
0.00519063
0.00548445
0.00568712
0.00572091
0.00568086
0.00560605
0.00549606
0.00536457
0.00521924
0.00506788
0.00491366
0.00476107
0.00461055
0.00446478
0.00432298
0.00418681
0.00405508
0.00392887
0.00380697
0.00369011
0.00357719
0.00346876
0.00336385
0.00326292
0.00316514
0.0030709
0.00297949
0.00289125
0.00280559
0.00272279
0.00264237
0.00256457
0.00248896
0.00241576
0.0023446
0.00227569
0.00220867
0.00214373
0.00208057
0.00201936
0.0019598
0.00190206
0.00184587
0.00179138
0.00173834
0.00168688
0.00163678
0.00158816
0.00154081
0.00149483
0.00145004
0.00140653
0.00136414
0.00132293
0.00128277
0.00124371
0.00120562
0.00116857
0.00113241
0.00109722
0.00106287
0.00102942
0.000996748
0.000964909
0.000933802
0.000903467
0.000873814
0.000844879
0.000816578
0.000788945
0.000761902
0.000735481
0.000709608
0.000684313
0.000659528
0.000635279
0.000611506
0.00058823
0.000565397
0.000543025
0.000521065
0.000499533
0.000478383
0.000457631
0.000437234
0.000417206
0.000397507
0.000378151
0.0003591
0.000340366
0.000321915
0.000303758
0.000285863
0.00026824
0.00025086
0.00023373
0.000216826
0.000200152
0.000183686
0.000167433
0.000151372
0.000135506
0.000119816
0.000104307
8.89586e-05
7.37749e-05
5.87395e-05
4.3854e-05
2.91039e-05
1.44901e-05
0
0
0.00114951
0.00226718
0.00331442
0.00423852
0.00496928
0.00542057
0.00544992
0.00528391
0.00502738
0.00474064
0.0044544
0.00418165
0.00392671
0.00368997
0.00347022
0.0032658
0.00307506
0.00289657
0.00272916
0.00257184
0.0024238
0.00228436
0.00215292
0.00202896
0.00191199
0.00180156
0.00169725
0.00159866
0.00150544
0.00141722
0.00133367
0.00125448
0.00117937
0.00110805
0.00104027
0.000975783
0.000914367
0.000855811
0.000799917
0.0007465
0.000695388
0.00064642
0.000599448
0.00055433
0.000510936
0.000469144
0.000428841
0.000389919
0.00035228
0.00031583
0.000280483
0.000246156
0.000212773
0.000180263
0.000148558
0.000117594
8.73109e-05
5.76529e-05
2.8566e-05
0
0
0.00055219
0.00110042
0.00164117
0.00216989
0.00268167
0.00317095
0.00363044
0.00405331
0.00442762
0.00474855
0.00499886
0.00516064
0.005228
0.00521948
0.00516154
0.00507287
0.00496098
0.00483591
0.00470344
0.00456785
0.00443228
0.00429835
0.00416758
0.00404035
0.00391732
0.00379834
0.00368367
0.00357295
0.00346627
0.00336323
0.00326382
0.0031677
0.00307484
0.00298493
0.00289794
0.00281361
0.00273193
0.00265268
0.00257585
0.00250125
0.00242889
0.00235859
0.00229036
0.00222406
0.00215969
0.00209713
0.00203637
0.0019773
0.00191992
0.00186413
0.00180991
0.00175719
0.00170595
0.00165611
0.00160765
0.0015605
0.00151466
0.00147003
0.00142662
0.00138435
0.00134322
0.00130317
0.00126417
0.00122617
0.00118916
0.00115309
0.00111794
0.00108366
0.00105024
0.00101764
0.000985835
0.000954792
0.000924497
0.000894909
0.000866019
0.000837787
0.000810204
0.000783235
0.000756871
0.000731078
0.000705847
0.00068115
0.000656975
0.000633297
0.000610105
0.000587375
0.000565097
0.000543249
0.000521823
0.000500795
0.000480159
0.000459894
0.000439993
0.000420437
0.000401219
0.000382321
0.000363738
0.000345451
0.000327456
0.000309737
0.000292288
0.000275095
0.000258152
0.000241446
0.000224971
0.000208716
0.000192674
0.000176836
0.000161195
0.00014574
0.000130468
0.000115368
0.000100435
8.56611e-05
7.10405e-05
5.65649e-05
4.22299e-05
2.80275e-05
1.39534e-05
0
0
0.00105163
0.00207321
0.00302859
0.00386914
0.00452973
0.00490946
0.0049907
0.00486261
0.00464523
0.00439556
0.00414266
0.00389932
0.00367018
0.00345611
0.00325638
0.00306974
0.00289492
0.00273076
0.0025763
0.00243076
0.00229346
0.00216383
0.00204139
0.00192569
0.00181631
0.00171287
0.00161501
0.00152238
0.00143465
0.00135152
0.00127269
0.00119788
0.00112683
0.00105928
0.000995021
0.000933817
0.000875466
0.000819775
0.000766565
0.000715667
0.000666921
0.000620182
0.00057531
0.000532176
0.00049066
0.00045065
0.000412039
0.000374729
0.000338627
0.000303648
0.000269711
0.000236739
0.000204661
0.00017341
0.000142924
0.000113144
8.40122e-05
5.54773e-05
2.7489e-05
0
0
0.000503365
0.001003
0.00149564
0.00197692
0.0024425
0.00288683
0.0033038
0.00368619
0.00402405
0.00431207
0.00452552
0.00466341
0.00474669
0.00476287
0.00472299
0.00465326
0.00456084
0.00445493
0.00434112
0.00422348
0.00410486
0.00398705
0.00387132
0.00375831
0.0036485
0.00354202
0.00343896
0.00333925
0.00324281
0.0031495
0.0030592
0.00297174
0.00288702
0.00280486
0.00272519
0.00264786
0.00257279
0.00249988
0.00242905
0.00236021
0.00229331
0.00222827
0.00216505
0.00210356
0.00204377
0.00198561
0.00192905
0.00187404
0.00182052
0.00176845
0.0017178
0.00166851
0.00162055
0.00157387
0.00152844
0.00148421
0.00144116
0.00139924
0.00135841
0.00131865
0.00127992
0.00124218
0.0012054
0.00116955
0.00113461
0.00110053
0.0010673
0.00103488
0.00100325
0.00097238
0.000942244
0.000912817
0.000884077
0.000855999
0.000828562
0.000801742
0.000775521
0.000749875
0.000724788
0.000700237
0.000676206
0.000652676
0.00062963
0.000607051
0.000584923
0.00056323
0.000541957
0.000521089
0.000500613
0.000480513
0.000460778
0.000441394
0.000422349
0.00040363
0.000385227
0.000367126
0.00034932
0.000331795
0.000314542
0.000297552
0.000280814
0.00026432
0.00024806
0.000232026
0.000216209
0.000200601
0.000185194
0.000169981
0.000154954
0.000140105
0.000125428
0.000110916
9.65631e-05
8.23612e-05
6.83052e-05
5.43884e-05
4.06053e-05
2.69499e-05
1.34168e-05
0
0
0.000954637
0.0018812
0.00274609
0.00350457
0.00409616
0.00442293
0.00453667
0.00444502
0.00426548
0.00405195
0.00383185
0.00361762
0.0034141
0.00322259
0.0030428
0.0028739
0.00271495
0.00256508
0.00242356
0.00228976
0.00216318
0.00204336
0.0019299
0.00182244
0.00172065
0.00162419
0.00153277
0.00144609
0.00136386
0.00128581
0.00121169
0.00114126
0.00107427
0.0010105
0.000949759
0.000891836
0.000836549
0.000783725
0.0007332
0.00068482
0.000638442
0.000593931
0.00055116
0.000510012
0.000470375
0.000432146
0.000395228
0.00035953
0.000324968
0.00029146
0.000258933
0.000227316
0.000196544
0.000166554
0.000137288
0.000108691
8.07115e-05
5.33003e-05
2.64111e-05
0
0
0.000454978
0.000906478
0.00135149
0.00178593
0.00220585
0.00260608
0.00298123
0.00332415
0.0036268
0.00388189
0.00406482
0.00418675
0.00427723
0.00431186
0.00428984
0.00423775
0.00416402
0.00407659
0.00398093
0.0038808
0.00377886
0.0036769
0.00357606
0.00347709
0.00338044
0.00328632
0.00319485
0.00310603
0.00301984
0.00293618
0.00285498
0.00277612
0.00269953
0.00262509
0.00255272
0.00248235
0.00241389
0.00234728
0.00228245
0.00221934
0.00215792
0.00209811
0.00203988
0.00198318
0.00192797
0.0018742
0.00182185
0.00177086
0.00172121
0.00167285
0.00162576
0.00157989
0.00153521
0.00149168
0.00144928
0.00140797
0.00136771
0.00132848
0.00129025
0.00125298
0.00121664
0.00118121
0.00114666
0.00111296
0.00108008
0.001048
0.00101669
0.000986123
0.00095628
0.000927136
0.000898668
0.000870853
0.00084367
0.000817098
0.000791116
0.000765706
0.000740848
0.000716522
0.000692713
0.000669402
0.000646572
0.000624207
0.000602291
0.000580809
0.000559746
0.000539088
0.000518822
0.000498932
0.000479407
0.000460234
0.000441401
0.000422896
0.000404708
0.000386825
0.000369237
0.000351933
0.000334904
0.000318139
0.00030163
0.000285367
0.000269342
0.000253546
0.00023797
0.000222606
0.000207448
0.000192486
0.000177715
0.000163126
0.000148714
0.00013447
0.00012039
0.000106465
9.26912e-05
7.90615e-05
6.55703e-05
5.2212e-05
3.89811e-05
2.58722e-05
1.28803e-05
0
0
0.00085847
0.00169099
0.0024667
0.00314476
0.00366899
0.00395408
0.00408828
0.00403123
0.00388811
0.00370983
0.00352202
0.0033366
0.00315853
0.00298945
0.00282953
0.0026783
0.00253518
0.00239957
0.00227095
0.00214888
0.00203299
0.00192295
0.00181846
0.00171924
0.00162502
0.00153554
0.00145055
0.00136981
0.00129307
0.00122011
0.0011507
0.00108463
0.0010217
0.000961715
0.000904488
0.000849846
0.000797623
0.000747665
0.000699825
0.000653965
0.000609954
0.000567671
0.000527002
0.000487839
0.000450082
0.000413635
0.000378411
0.000344326
0.000311303
0.000279267
0.000248151
0.00021789
0.000188424
0.000159695
0.000131649
0.000104237
7.74094e-05
5.11223e-05
2.53327e-05
0
0
0.000406952
0.0008107
0.00120848
0.00159655
0.00197134
0.00232815
0.00266213
0.0029666
0.00323484
0.00345802
0.00361532
0.00372517
0.00381818
0.00386638
0.00386112
0.00382578
0.00376988
0.00370036
0.00362237
0.0035394
0.0034539
0.00336755
0.00328148
0.00319641
0.00311283
0.00303099
0.00295106
0.00287309
0.0027971
0.00272306
0.00265093
0.00258065
0.00251217
0.00244542
0.00238036
0.00231692
0.00225506
0.00219473
0.0021359
0.00207851
0.00202255
0.00196796
0.00191472
0.0018628
0.00181217
0.00176279
0.00171463
0.00166768
0.00162189
0.00157724
0.0015337
0.00149124
0.00144984
0.00140946
0.00137009
0.00133169
0.00129423
0.00125769
0.00122205
0.00118727
0.00115333
0.00112022
0.00108789
0.00105633
0.00102552
0.000995431
0.000966042
0.000937331
0.000909278
0.000881862
0.000855062
0.000828859
0.000803234
0.000778168
0.000753643
0.000729642
0.000706148
0.000683144
0.000660614
0.000638542
0.000616914
0.000595715
0.00057493
0.000554546
0.000534549
0.000514927
0.000495667
0.000476757
0.000458184
0.000439938
0.000422008
0.000404383
0.000387052
0.000370005
0.000353233
0.000336726
0.000320476
0.000304472
0.000288707
0.000273172
0.00025786
0.000242762
0.000227871
0.000213179
0.000198679
0.000184365
0.000170229
0.000156266
0.000142468
0.000128831
0.000115346
0.00010201
8.8816e-05
7.57588e-05
6.2833e-05
5.00336e-05
3.73554e-05
2.47936e-05
1.23433e-05
0
0
0.000763114
0.00150252
0.00219028
0.0027896
0.00324866
0.00349914
0.00364596
0.00362126
0.00351316
0.00336931
0.00321331
0.0030564
0.00290358
0.00275683
0.00261668
0.00248306
0.00235571
0.00223431
0.00211855
0.00200818
0.00190296
0.00180268
0.00170713
0.00161613
0.00152947
0.00144695
0.00136839
0.00129357
0.00122232
0.00115444
0.00108973
0.00102803
0.00096916
0.000912947
0.000859235
0.000807871
0.000758711
0.000711618
0.000666461
0.000623118
0.000581474
0.000541419
0.000502851
0.000465672
0.000429794
0.000395129
0.000361598
0.000329125
0.00029764
0.000267077
0.000237372
0.000208466
0.000180305
0.000152837
0.000126011
9.97831e-05
7.41079e-05
4.89447e-05
2.42544e-05
0
0
0.000359286
0.000715654
0.00106661
0.00140876
0.00173892
0.00205291
0.00234637
0.00261335
0.00284791
0.00304073
0.00317596
0.00327574
0.0033686
0.00342673
0.00343667
0.0034173
0.00337843
0.00332628
0.00326553
0.00319938
0.00313007
0.00305914
0.00298768
0.0029164
0.0028458
0.00277617
0.00270771
0.00264054
0.00257472
0.00251026
0.00244717
0.00238544
0.00232504
0.00226596
0.00220818
0.00215166
0.00209638
0.00204233
0.00198947
0.0019378
0.00188728
0.00183791
0.00178966
0.0017425
0.00169644
0.00165143
0.00160747
0.00156454
0.0015226
0.00148165
0.00144167
0.00140262
0.0013645
0.00132727
0.00129092
0.00125542
0.00122076
0.00118691
0.00115386
0.00112157
0.00109003
0.00105922
0.00102912
0.000999705
0.000970959
0.000942861
0.000915393
0.000888537
0.000862273
0.000836583
0.000811452
0.00078686
0.000762793
0.000739233
0.000716164
0.000693573
0.000671442
0.000649759
0.000628508
0.000607676
0.00058725
0.000567217
0.000547563
0.000528277
0.000509346
0.00049076
0.000472507
0.000454575
0.000436956
0.000419637
0.00040261
0.000385864
0.000369391
0.000353181
0.000337225
0.000321515
0.000306043
0.000290801
0.00027578
0.000260974
0.000246374
0.000231975
0.000217768
0.000203748
0.000189908
0.000176241
0.000162742
0.000149403
0.000136221
0.000123189
0.000110302
9.75534e-05
8.49396e-05
7.2455e-05
6.00949e-05
4.78545e-05
3.57292e-05
2.37146e-05
1.18063e-05
0
0
0.000668412
0.00131547
0.00191628
0.00243832
0.00283458
0.00305488
0.00320913
0.00321441
0.00314008
0.00302996
0.00290536
0.00277672
0.00264901
0.00252447
0.00240403
0.00228798
0.00217636
0.00206914
0.00196622
0.00186752
0.00177295
0.00168241
0.00159581
0.00151301
0.0014339
0.00135835
0.0012862
0.00121732
0.00115155
0.00108874
0.00102874
0.000971407
0.00091659
0.000864151
0.000813955
0.00076587
0.000719774
0.000675546
0.000633074
0.00059225
0.000552973
0.000515147
0.000478681
0.000443489
0.00040949
0.000376608
0.000344771
0.000313912
0.000283967
0.000254877
0.000226583
0.000199035
0.00017218
0.000145973
0.000120369
9.53258e-05
7.08037e-05
4.67653e-05
2.31753e-05
0
0
0.000311949
0.000621281
0.000925772
0.00122241
0.0015084
0.0017801
0.00203366
0.00226394
0.00246559
0.00262973
0.00274543
0.00283616
0.00292726
0.00299263
0.00301616
0.00301199
0.00298944
0.00295417
0.00291029
0.00286067
0.00280732
0.00275164
0.00269465
0.00263705
0.00257934
0.00252184
0.0024648
0.00240838
0.00235268
0.00229776
0.00224369
0.00219048
0.00213815
0.00208672
0.00203619
0.00198657
0.00193787
0.00189007
0.00184318
0.0017972
0.00175212
0.00170795
0.00166467
0.00162228
0.00158077
0.00154014
0.00150037
0.00146144
0.00142336
0.00138611
0.00134967
0.00131403
0.00127918
0.0012451
0.00121177
0.00117918
0.00114731
0.00111615
0.00108568
0.00105588
0.00102673
0.000998232
0.000970353
0.00094308
0.000916399
0.000890292
0.000864745
0.000839741
0.000815265
0.000791303
0.000767838
0.000744858
0.000722348
0.000700294
0.000678682
0.000657499
0.000636733
0.00061637
0.000596398
0.000576806
0.000557582
0.000538714
0.000520191
0.000502003
0.000484139
0.000466588
0.000449342
0.00043239
0.000415723
0.000399331
0.000383207
0.000367341
0.000351726
0.000336353
0.000321213
0.000306301
0.000291608
0.000277126
0.00026285
0.000248772
0.000234886
0.000221185
0.000207664
0.000194315
0.000181134
0.000168115
0.000155252
0.000142539
0.000129972
0.000117546
0.000105255
9.30956e-05
8.10621e-05
6.91504e-05
5.73561e-05
4.56749e-05
3.41026e-05
2.26353e-05
1.1269e-05
0
0
0.000574353
0.00112979
0.00164459
0.00209067
0.00242653
0.00261953
0.00277764
0.00281055
0.0027689
0.00269188
0.0025983
0.00249769
0.00239493
0.00229251
0.00219169
0.00209314
0.00199722
0.00190414
0.00181403
0.00172698
0.00164304
0.00156223
0.00148454
0.00140995
0.00133838
0.00126977
0.00120404
0.00114108
0.00108079
0.00102305
0.000967756
0.000914785
0.000864023
0.000815356
0.000768674
0.000723868
0.000680834
0.000639471
0.000599683
0.000561378
0.000524469
0.000488871
0.000454507
0.000421301
0.000389183
0.000358084
0.000327942
0.000298696
0.000270292
0.000242674
0.000215793
0.000189601
0.000164053
0.000139108
0.000114726
9.08675e-05
6.74987e-05
4.45854e-05
2.20959e-05
0
0
0.000264938
0.000527569
0.000785953
0.00103747
0.00127971
0.0015096
0.00172385
0.00191813
0.00208766
0.00222469
0.00232266
0.00240484
0.0024932
0.00256386
0.00259945
0.00260972
0.0026029
0.00258406
0.00255672
0.00252337
0.00248576
0.00244516
0.00240251
0.00235848
0.00231357
0.00226814
0.00222246
0.00217673
0.0021311
0.0020857
0.0020406
0.00199588
0.00195159
0.00190778
0.00186449
0.00182175
0.00177959
0.00173803
0.00169709
0.00165679
0.00161715
0.00157816
0.00153984
0.0015022
0.00146524
0.00142897
0.00139337
0.00135846
0.00132422
0.00129066
0.00125776
0.00122552
0.00119394
0.00116299
0.00113268
0.00110299
0.00107391
0.00104543
0.00101754
0.000990231
0.000963481
0.000937283
0.000911624
0.000886491
0.000861872
0.000837754
0.000814125
0.000790972
0.000768283
0.000746046
0.000724248
0.000702878
0.000681923
0.000661373
0.000641217
0.000621442
0.000602038
0.000582995
0.000564302
0.000545949
0.000527926
0.000510223
0.00049283
0.000475739
0.000458941
0.000442426
0.000426186
0.000410212
0.000394497
0.000379033
0.000363812
0.000348825
0.000334067
0.00031953
0.000305207
0.000291092
0.000277177
0.000263456
0.000249924
0.000236575
0.000223402
0.000210399
0.000197562
0.000184886
0.000172364
0.000159991
0.000147764
0.000135677
0.000123725
0.000111905
0.000100211
8.86392e-05
7.71859e-05
6.58468e-05
5.46181e-05
4.34959e-05
3.24765e-05
2.15564e-05
1.0732e-05
0
0
0.000480875
0.000945346
0.00137494
0.0017462
0.0020239
0.00219145
0.00235098
0.00240936
0.00239944
0.00235497
0.00229208
0.00221929
0.00214133
0.00206093
0.00197967
0.00189857
0.0018183
0.00173932
0.00166199
0.00158656
0.00151323
0.00144213
0.00137335
0.00130693
0.0012429
0.00118124
0.00112191
0.00106487
0.00101005
0.000957378
0.00090678
0.00085817
0.00081146
0.000766564
0.000723394
0.000681866
0.000641893
0.000603394
0.00056629
0.000530504
0.000495961
0.000462593
0.000430331
0.000399111
0.000368872
0.000339557
0.000311109
0.000283478
0.000256613
0.000230469
0.000205
0.000180165
0.000155925
0.000132242
0.000109081
8.64084e-05
6.41931e-05
4.24051e-05
2.10163e-05
0
0
0.000218172
0.000434359
0.000646904
0.000853588
0.00105242
0.00124087
0.00141626
0.0015751
0.00171324
0.00182452
0.00190597
0.00197983
0.00206484
0.00213938
0.00218573
0.00220975
0.00221818
0.0022154
0.00220432
0.00218702
0.00216499
0.00213935
0.00211093
0.00208038
0.00204821
0.00201478
0.00198041
0.00194534
0.00190976
0.00187383
0.00183769
0.00180143
0.00176516
0.00172896
0.00169289
0.00165702
0.00162139
0.00158606
0.00155107
0.00151644
0.00148221
0.0014484
0.00141504
0.00138215
0.00134973
0.00131781
0.00128639
0.00125548
0.00122508
0.0011952
0.00116584
0.001137
0.00110868
0.00108087
0.00105358
0.00102679
0.0010005
0.000974701
0.000949393
0.000924564
0.000900207
0.000876313
0.000852873
0.00082988
0.000807324
0.000785195
0.000763484
0.000742182
0.00072128
0.000700768
0.000680636
0.000660876
0.000641478
0.000622433
0.000603732
0.000585365
0.000567325
0.000549602
0.000532188
0.000515074
0.000498252
0.000481715
0.000465453
0.00044946
0.000433728
0.000418248
0.000403015
0.000388021
0.000373259
0.000358722
0.000344404
0.000330297
0.000316397
0.000302697
0.000289191
0.000275872
0.000262736
0.000249777
0.00023699
0.000224369
0.000211909
0.000199606
0.000187454
0.000175449
0.000163587
0.000151862
0.000140271
0.00012881
0.000117474
0.00010626
9.51627e-05
8.41797e-05
7.3307e-05
6.25409e-05
5.18782e-05
4.13154e-05
3.08493e-05
2.04767e-05
1.01946e-05
0
0
0.000387964
0.00076209
0.00110721
0.00140467
0.0016262
0.00176945
0.00192875
0.00201072
0.00203172
0.00201933
0.00198682
0.00194163
0.00188835
0.00182985
0.00176807
0.00170436
0.00163968
0.00157476
0.00151018
0.00144634
0.00138359
0.00132218
0.00126228
0.00120404
0.00114752
0.00109278
0.00103985
0.000988715
0.000939362
0.000891754
0.000845848
0.000801593
0.000758932
0.000717802
0.000678142
0.000639887
0.000602974
0.000567337
0.000532914
0.000499645
0.000467468
0.000436327
0.000406166
0.000376931
0.000348571
0.000321038
0.000294284
0.000268266
0.000242941
0.000218269
0.000194212
0.000170733
0.0001478
0.000125378
0.000103438
8.1951e-05
6.08887e-05
4.02256e-05
1.99371e-05
0
0
0.000171645
0.000341634
0.000508596
0.000670728
0.000826452
0.000973799
0.00111073
0.0012346
0.00134204
0.00142866
0.00149444
0.00156006
0.00164133
0.00171878
0.00177481
0.00181195
0.00183523
0.0018482
0.00185315
0.00185172
0.00184512
0.00183431
0.00182003
0.00180288
0.00178337
0.00176189
0.00173879
0.00171433
0.00168876
0.00166228
0.00163506
0.00160724
0.00157897
0.00155035
0.00152149
0.00149247
0.00146336
0.00143425
0.00140518
0.00137621
0.00134738
0.00131875
0.00129033
0.00126217
0.0012343
0.00120672
0.00117947
0.00115255
0.00112599
0.0010998
0.00107397
0.00104853
0.00102346
0.00099879
0.000974505
0.000950611
0.000927106
0.00090399
0.000881261
0.000858914
0.000836948
0.000815356
0.000794135
0.00077328
0.000752785
0.000732643
0.00071285
0.000693398
0.000674282
0.000655494
0.000637029
0.000618878
0.000601036
0.000583495
0.000566249
0.00054929
0.000532613
0.00051621
0.000500074
0.000484199
0.000468579
0.000453207
0.000438076
0.00042318
0.000408514
0.00039407
0.000379844
0.000365829
0.000352019
0.000338409
0.000324994
0.000311768
0.000298726
0.000285862
0.000273173
0.000260652
0.000248295
0.000236097
0.000224054
0.000212162
0.000200416
0.000188811
0.000177345
0.000166012
0.000154809
0.000143732
0.000132778
0.000121942
0.000111222
0.000100614
9.01141e-05
7.97197e-05
6.94276e-05
5.92347e-05
4.9138e-05
3.91346e-05
2.92219e-05
1.93969e-05
9.65712e-06
0
0
0.000295458
0.000579683
0.000840869
0.00106526
0.0012322
0.00135184
0.00150983
0.00161388
0.0016652
0.00168452
0.00168215
0.00166443
0.00163569
0.00159903
0.00155667
0.0015103
0.00146118
0.0014103
0.00135843
0.00130617
0.00125399
0.00120225
0.00115123
0.00110114
0.00105214