# vtk DataFile Version 2.0
./vtk
ASCII

DATASET UNSTRUCTURED_GRID
POINTS 889 double
0 0 0.0
0.5 0 0.0
1 0 0.0
1.5 0 0.0
2 0 0.0
2.5 0 0.0
3 0 0.0
3.5 0 0.0
4 0 0.0
4.5 0 0.0
5 0 0.0
6.9457 0 0.0
8.8914 0 0.0
12.3514 0 0.0
15.8114 0 0.0
21.9642 0 0.0
28.1171 0 0.0
39.0585 0 0.0
50 0 0.0
0 -0.5 0.0
1 -0.5 0.0
2 -0.5 0.0
3 -0.5 0.0
4 -0.5 0.0
5 -0.5 0.0
8.8914 -0.5 0.0
15.8114 -0.5 0.0
28.1171 -0.5 0.0
50 -0.5 0.0
0 -1 0.0
0.5 -1 0.0
1 -1 0.0
1.5 -1 0.0
2 -1 0.0
2.5 -1 0.0
3 -1 0.0
3.5 -1 0.0
4 -1 0.0
4.5 -1 0.0
5 -1 0.0
6.9457 -1 0.0
8.8914 -1 0.0
12.3514 -1 0.0
15.8114 -1 0.0
21.9642 -1 0.0
28.1171 -1 0.0
39.0585 -1 0.0
50 -1 0.0
0 -1.5 0.0
1 -1.5 0.0
2 -1.5 0.0
3 -1.5 0.0
4 -1.5 0.0
5 -1.5 0.0
8.8914 -1.5 0.0
15.8114 -1.5 0.0
28.1171 -1.5 0.0
50 -1.5 0.0
0 -2 0.0
0.5 -2 0.0
1 -2 0.0
1.5 -2 0.0
2 -2 0.0
2.5 -2 0.0
3 -2 0.0
3.5 -2 0.0
4 -2 0.0
4.5 -2 0.0
5 -2 0.0
6.9457 -2 0.0
8.8914 -2 0.0
12.3514 -2 0.0
15.8114 -2 0.0
21.9642 -2 0.0
28.1171 -2 0.0
39.0585 -2 0.0
50 -2 0.0
0 -2.5 0.0
1 -2.5 0.0
2 -2.5 0.0
3 -2.5 0.0
4 -2.5 0.0
5 -2.5 0.0
8.8914 -2.5 0.0
15.8114 -2.5 0.0
28.1171 -2.5 0.0
50 -2.5 0.0
0 -3 0.0
0.5 -3 0.0
1 -3 0.0
1.5 -3 0.0
2 -3 0.0
2.5 -3 0.0
3 -3 0.0
3.5 -3 0.0
4 -3 0.0
4.5 -3 0.0
5 -3 0.0
6.9457 -3 0.0
8.8914 -3 0.0
12.3514 -3 0.0
15.8114 -3 0.0
21.9642 -3 0.0
28.1171 -3 0.0
39.0585 -3 0.0
50 -3 0.0
0 -3.5 0.0
1 -3.5 0.0
2 -3.5 0.0
3 -3.5 0.0
4 -3.5 0.0
5 -3.5 0.0
8.8914 -3.5 0.0
15.8114 -3.5 0.0
28.1171 -3.5 0.0
50 -3.5 0.0
0 -4 0.0
0.5 -4 0.0
1 -4 0.0
1.5 -4 0.0
2 -4 0.0
2.5 -4 0.0
3 -4 0.0
3.5 -4 0.0
4 -4 0.0
4.5 -4 0.0
5 -4 0.0
6.9457 -4 0.0
8.8914 -4 0.0
12.3514 -4 0.0
15.8114 -4 0.0
21.9642 -4 0.0
28.1171 -4 0.0
39.0585 -4 0.0
50 -4 0.0
0 -4.5 0.0
1 -4.5 0.0
2 -4.5 0.0
3 -4.5 0.0
4 -4.5 0.0
5 -4.5 0.0
8.8914 -4.5 0.0
15.8114 -4.5 0.0
28.1171 -4.5 0.0
50 -4.5 0.0
0 -5 0.0
0.5 -5 0.0
1 -5 0.0
1.5 -5 0.0
2 -5 0.0
2.5 -5 0.0
3 -5 0.0
3.5 -5 0.0
4 -5 0.0
4.5 -5 0.0
5 -5 0.0
6.9457 -5 0.0
8.8914 -5 0.0
12.3514 -5 0.0
15.8114 -5 0.0
21.9642 -5 0.0
28.1171 -5 0.0
39.0585 -5 0.0
50 -5 0.0
0 -5.5 0.0
1 -5.5 0.0
2 -5.5 0.0
3 -5.5 0.0
4 -5.5 0.0
5 -5.5 0.0
8.8914 -5.5 0.0
15.8114 -5.5 0.0
28.1171 -5.5 0.0
50 -5.5 0.0
0 -6 0.0
0.5 -6 0.0
1 -6 0.0
1.5 -6 0.0
2 -6 0.0
2.5 -6 0.0
3 -6 0.0
3.5 -6 0.0
4 -6 0.0
4.5 -6 0.0
5 -6 0.0
6.9457 -6 0.0
8.8914 -6 0.0
12.3514 -6 0.0
15.8114 -6 0.0
21.9642 -6 0.0
28.1171 -6 0.0
39.0585 -6 0.0
50 -6 0.0
0 -6.5 0.0
1 -6.5 0.0
2 -6.5 0.0
3 -6.5 0.0
4 -6.5 0.0
5 -6.5 0.0
8.8914 -6.5 0.0
15.8114 -6.5 0.0
28.1171 -6.5 0.0
50 -6.5 0.0
0 -7 0.0
0.5 -7 0.0
1 -7 0.0
1.5 -7 0.0
2 -7 0.0
2.5 -7 0.0
3 -7 0.0
3.5 -7 0.0
4 -7 0.0
4.5 -7 0.0
5 -7 0.0
6.9457 -7 0.0
8.8914 -7 0.0
12.3514 -7 0.0
15.8114 -7 0.0
21.9642 -7 0.0
28.1171 -7 0.0
39.0585 -7 0.0
50 -7 0.0
0 -7.5 0.0
1 -7.5 0.0
2 -7.5 0.0
3 -7.5 0.0
4 -7.5 0.0
5 -7.5 0.0
8.8914 -7.5 0.0
15.8114 -7.5 0.0
28.1171 -7.5 0.0
50 -7.5 0.0
0 -8 0.0
0.5 -8 0.0
1 -8 0.0
1.5 -8 0.0
2 -8 0.0
2.5 -8 0.0
3 -8 0.0
3.5 -8 0.0
4 -8 0.0
4.5 -8 0.0
5 -8 0.0
6.9457 -8 0.0
8.8914 -8 0.0
12.3514 -8 0.0
15.8114 -8 0.0
21.9642 -8 0.0
28.1171 -8 0.0
39.0585 -8 0.0
50 -8 0.0
0 -8.5 0.0
1 -8.5 0.0
2 -8.5 0.0
3 -8.5 0.0
4 -8.5 0.0
5 -8.5 0.0
8.8914 -8.5 0.0
15.8114 -8.5 0.0
28.1171 -8.5 0.0
50 -8.5 0.0
0 -9 0.0
0.5 -9 0.0
1 -9 0.0
1.5 -9 0.0
2 -9 0.0
2.5 -9 0.0
3 -9 0.0
3.5 -9 0.0
4 -9 0.0
4.5 -9 0.0
5 -9 0.0
6.9457 -9 0.0
8.8914 -9 0.0
12.3514 -9 0.0
15.8114 -9 0.0
21.9642 -9 0.0
28.1171 -9 0.0
39.0585 -9 0.0
50 -9 0.0
0 -9.5 0.0
1 -9.5 0.0
2 -9.5 0.0
3 -9.5 0.0
4 -9.5 0.0
5 -9.5 0.0
8.8914 -9.5 0.0
15.8114 -9.5 0.0
28.1171 -9.5 0.0
50 -9.5 0.0
0 -10 0.0
0.5 -10 0.0
1 -10 0.0
1.5 -10 0.0
2 -10 0.0
2.5 -10 0.0
3 -10 0.0
3.5 -10 0.0
4 -10 0.0
4.5 -10 0.0
5 -10 0.0
6.9457 -10 0.0
8.8914 -10 0.0
12.3514 -10 0.0
15.8114 -10 0.0
21.9642 -10 0.0
28.1171 -10 0.0
39.0585 -10 0.0
50 -10 0.0
0 -10.5 0.0
1 -10.5 0.0
2 -10.5 0.0
3 -10.5 0.0
4 -10.5 0.0
5 -10.5 0.0
8.8914 -10.5 0.0
15.8114 -10.5 0.0
28.1171 -10.5 0.0
50 -10.5 0.0
0 -11 0.0
0.5 -11 0.0
1 -11 0.0
1.5 -11 0.0
2 -11 0.0
2.5 -11 0.0
3 -11 0.0
3.5 -11 0.0
4 -11 0.0
4.5 -11 0.0
5 -11 0.0
6.9457 -11 0.0
8.8914 -11 0.0
12.3514 -11 0.0
15.8114 -11 0.0
21.9642 -11 0.0
28.1171 -11 0.0
39.0585 -11 0.0
50 -11 0.0
0 -11.5 0.0
1 -11.5 0.0
2 -11.5 0.0
3 -11.5 0.0
4 -11.5 0.0
5 -11.5 0.0
8.8914 -11.5 0.0
15.8114 -11.5 0.0
28.1171 -11.5 0.0
50 -11.5 0.0
0 -12 0.0
0.5 -12 0.0
1 -12 0.0
1.5 -12 0.0
2 -12 0.0
2.5 -12 0.0
3 -12 0.0
3.5 -12 0.0
4 -12 0.0
4.5 -12 0.0
5 -12 0.0
6.9457 -12 0.0
8.8914 -12 0.0
12.3514 -12 0.0
15.8114 -12 0.0
21.9642 -12 0.0
28.1171 -12 0.0
39.0585 -12 0.0
50 -12 0.0
0 -12.5 0.0
1 -12.5 0.0
2 -12.5 0.0
3 -12.5 0.0
4 -12.5 0.0
5 -12.5 0.0
8.8914 -12.5 0.0
15.8114 -12.5 0.0
28.1171 -12.5 0.0
50 -12.5 0.0
0 -13 0.0
0.5 -13 0.0
1 -13 0.0
1.5 -13 0.0
2 -13 0.0
2.5 -13 0.0
3 -13 0.0
3.5 -13 0.0
4 -13 0.0
4.5 -13 0.0
5 -13 0.0
6.9457 -13 0.0
8.8914 -13 0.0
12.3514 -13 0.0
15.8114 -13 0.0
21.9642 -13 0.0
28.1171 -13 0.0
39.0585 -13 0.0
50 -13 0.0
0 -13.5 0.0
1 -13.5 0.0
2 -13.5 0.0
3 -13.5 0.0
4 -13.5 0.0
5 -13.5 0.0
8.8914 -13.5 0.0
15.8114 -13.5 0.0
28.1171 -13.5 0.0
50 -13.5 0.0
0 -14 0.0
0.5 -14 0.0
1 -14 0.0
1.5 -14 0.0
2 -14 0.0
2.5 -14 0.0
3 -14 0.0
3.5 -14 0.0
4 -14 0.0
4.5 -14 0.0
5 -14 0.0
6.9457 -14 0.0
8.8914 -14 0.0
12.3514 -14 0.0
15.8114 -14 0.0
21.9642 -14 0.0
28.1171 -14 0.0
39.0585 -14 0.0
50 -14 0.0
0 -14.5 0.0
1 -14.5 0.0
2 -14.5 0.0
3 -14.5 0.0
4 -14.5 0.0
5 -14.5 0.0
8.8914 -14.5 0.0
15.8114 -14.5 0.0
28.1171 -14.5 0.0
50 -14.5 0.0
0 -15 0.0
0.5 -15 0.0
1 -15 0.0
1.5 -15 0.0
2 -15 0.0
2.5 -15 0.0
3 -15 0.0
3.5 -15 0.0
4 -15 0.0
4.5 -15 0.0
5 -15 0.0
6.9457 -15 0.0
8.8914 -15 0.0
12.3514 -15 0.0
15.8114 -15 0.0
21.9642 -15 0.0
28.1171 -15 0.0
39.0585 -15 0.0
50 -15 0.0
0 -16.5 0.0
1 -16.5 0.0
2 -16.5 0.0
3 -16.5 0.0
4 -16.5 0.0
5 -16.5 0.0
8.8914 -16.5 0.0
15.8114 -16.5 0.0
28.1171 -16.5 0.0
50 -16.5 0.0
0 -18 0.0
0.5 -18 0.0
1 -18 0.0
1.5 -18 0.0
2 -18 0.0
2.5 -18 0.0
3 -18 0.0
3.5 -18 0.0
4 -18 0.0
4.5 -18 0.0
5 -18 0.0
6.9457 -18 0.0
8.8914 -18 0.0
12.3514 -18 0.0
15.8114 -18 0.0
21.9642 -18 0.0
28.1171 -18 0.0
39.0585 -18 0.0
50 -18 0.0
0 -19.5 0.0
1 -19.5 0.0
2 -19.5 0.0
3 -19.5 0.0
4 -19.5 0.0
5 -19.5 0.0
8.8914 -19.5 0.0
15.8114 -19.5 0.0
28.1171 -19.5 0.0
50 -19.5 0.0
0 -21 0.0
0.5 -21 0.0
1 -21 0.0
1.5 -21 0.0
2 -21 0.0
2.5 -21 0.0
3 -21 0.0
3.5 -21 0.0
4 -21 0.0
4.5 -21 0.0
5 -21 0.0
6.9457 -21 0.0
8.8914 -21 0.0
12.3514 -21 0.0
15.8114 -21 0.0
21.9642 -21 0.0
28.1171 -21 0.0
39.0585 -21 0.0
50 -21 0.0
0 -22.5 0.0
1 -22.5 0.0
2 -22.5 0.0
3 -22.5 0.0
4 -22.5 0.0
5 -22.5 0.0
8.8914 -22.5 0.0
15.8114 -22.5 0.0
28.1171 -22.5 0.0
50 -22.5 0.0
0 -24 0.0
0.5 -24 0.0
1 -24 0.0
1.5 -24 0.0
2 -24 0.0
2.5 -24 0.0
3 -24 0.0
3.5 -24 0.0
4 -24 0.0
4.5 -24 0.0
5 -24 0.0
6.9457 -24 0.0
8.8914 -24 0.0
12.3514 -24 0.0
15.8114 -24 0.0
21.9642 -24 0.0
28.1171 -24 0.0
39.0585 -24 0.0
50 -24 0.0
0 -25.5 0.0
1 -25.5 0.0
2 -25.5 0.0
3 -25.5 0.0
4 -25.5 0.0
5 -25.5 0.0
8.8914 -25.5 0.0
15.8114 -25.5 0.0
28.1171 -25.5 0.0
50 -25.5 0.0
0 -27 0.0
0.5 -27 0.0
1 -27 0.0
1.5 -27 0.0
2 -27 0.0
2.5 -27 0.0
3 -27 0.0
3.5 -27 0.0
4 -27 0.0
4.5 -27 0.0
5 -27 0.0
6.9457 -27 0.0
8.8914 -27 0.0
12.3514 -27 0.0
15.8114 -27 0.0
21.9642 -27 0.0
28.1171 -27 0.0
39.0585 -27 0.0
50 -27 0.0
0 -28.5 0.0
1 -28.5 0.0
2 -28.5 0.0
3 -28.5 0.0
4 -28.5 0.0
5 -28.5 0.0
8.8914 -28.5 0.0
15.8114 -28.5 0.0
28.1171 -28.5 0.0
50 -28.5 0.0
0 -30 0.0
0.5 -30 0.0
1 -30 0.0
1.5 -30 0.0
2 -30 0.0
2.5 -30 0.0
3 -30 0.0
3.5 -30 0.0
4 -30 0.0
4.5 -30 0.0
5 -30 0.0
6.9457 -30 0.0
8.8914 -30 0.0
12.3514 -30 0.0
15.8114 -30 0.0
21.9642 -30 0.0
28.1171 -30 0.0
39.0585 -30 0.0
50 -30 0.0
0 -31.5 0.0
1 -31.5 0.0
2 -31.5 0.0
3 -31.5 0.0
4 -31.5 0.0
5 -31.5 0.0
8.8914 -31.5 0.0
15.8114 -31.5 0.0
28.1171 -31.5 0.0
50 -31.5 0.0
0 -33 0.0
0.5 -33 0.0
1 -33 0.0
1.5 -33 0.0
2 -33 0.0
2.5 -33 0.0
3 -33 0.0
3.5 -33 0.0
4 -33 0.0
4.5 -33 0.0
5 -33 0.0
6.9457 -33 0.0
8.8914 -33 0.0
12.3514 -33 0.0
15.8114 -33 0.0
21.9642 -33 0.0
28.1171 -33 0.0
39.0585 -33 0.0
50 -33 0.0
0 -34.5 0.0
1 -34.5 0.0
2 -34.5 0.0
3 -34.5 0.0
4 -34.5 0.0
5 -34.5 0.0
8.8914 -34.5 0.0
15.8114 -34.5 0.0
28.1171 -34.5 0.0
50 -34.5 0.0
0 -36 0.0
0.5 -36 0.0
1 -36 0.0
1.5 -36 0.0
2 -36 0.0
2.5 -36 0.0
3 -36 0.0
3.5 -36 0.0
4 -36 0.0
4.5 -36 0.0
5 -36 0.0
6.9457 -36 0.0
8.8914 -36 0.0
12.3514 -36 0.0
15.8114 -36 0.0
21.9642 -36 0.0
28.1171 -36 0.0
39.0585 -36 0.0
50 -36 0.0
0 -37.5 0.0
1 -37.5 0.0
2 -37.5 0.0
3 -37.5 0.0
4 -37.5 0.0
5 -37.5 0.0
8.8914 -37.5 0.0
15.8114 -37.5 0.0
28.1171 -37.5 0.0
50 -37.5 0.0
0 -39 0.0
0.5 -39 0.0
1 -39 0.0
1.5 -39 0.0
2 -39 0.0
2.5 -39 0.0
3 -39 0.0
3.5 -39 0.0
4 -39 0.0
4.5 -39 0.0
5 -39 0.0
6.9457 -39 0.0
8.8914 -39 0.0
12.3514 -39 0.0
15.8114 -39 0.0
21.9642 -39 0.0
28.1171 -39 0.0
39.0585 -39 0.0
50 -39 0.0
0 -40.5 0.0
1 -40.5 0.0
2 -40.5 0.0
3 -40.5 0.0
4 -40.5 0.0
5 -40.5 0.0
8.8914 -40.5 0.0
15.8114 -40.5 0.0
28.1171 -40.5 0.0
50 -40.5 0.0
0 -42 0.0
0.5 -42 0.0
1 -42 0.0
1.5 -42 0.0
2 -42 0.0
2.5 -42 0.0
3 -42 0.0
3.5 -42 0.0
4 -42 0.0
4.5 -42 0.0
5 -42 0.0
6.9457 -42 0.0
8.8914 -42 0.0
12.3514 -42 0.0
15.8114 -42 0.0
21.9642 -42 0.0
28.1171 -42 0.0
39.0585 -42 0.0
50 -42 0.0
0 -43.5 0.0
1 -43.5 0.0
2 -43.5 0.0
3 -43.5 0.0
4 -43.5 0.0
5 -43.5 0.0
8.8914 -43.5 0.0
15.8114 -43.5 0.0
28.1171 -43.5 0.0
50 -43.5 0.0
0 -45 0.0
0.5 -45 0.0
1 -45 0.0
1.5 -45 0.0
2 -45 0.0
2.5 -45 0.0
3 -45 0.0
3.5 -45 0.0
4 -45 0.0
4.5 -45 0.0
5 -45 0.0
6.9457 -45 0.0
8.8914 -45 0.0
12.3514 -45 0.0
15.8114 -45 0.0
21.9642 -45 0.0
28.1171 -45 0.0
39.0585 -45 0.0
50 -45 0.0
0 -50.5 0.0
1 -50.5 0.0
2 -50.5 0.0
3 -50.5 0.0
4 -50.5 0.0
5 -50.5 0.0
8.8914 -50.5 0.0
15.8114 -50.5 0.0
28.1171 -50.5 0.0
50 -50.5 0.0
0 -56 0.0
0.5 -56 0.0
1 -56 0.0
1.5 -56 0.0
2 -56 0.0
2.5 -56 0.0
3 -56 0.0
3.5 -56 0.0
4 -56 0.0
4.5 -56 0.0
5 -56 0.0
6.9457 -56 0.0
8.8914 -56 0.0
12.3514 -56 0.0
15.8114 -56 0.0
21.9642 -56 0.0
28.1171 -56 0.0
39.0585 -56 0.0
50 -56 0.0
0 -61.5 0.0
1 -61.5 0.0
2 -61.5 0.0
3 -61.5 0.0
4 -61.5 0.0
5 -61.5 0.0
8.8914 -61.5 0.0
15.8114 -61.5 0.0
28.1171 -61.5 0.0
[...]
POINT_DATA 889
SCALARS Displacement_R double 1
LOOKUP_TABLE default
0
-5.36037e-06
-1.0662e-05
-1.58495e-05
-2.08621e-05
-2.56781e-05
-3.0231e-05
-3.45534e-05
-3.84405e-05
-4.1648e-05
-4.41973e-05
-4.80903e-05
-4.74927e-05
-4.25896e-05
-3.58114e-05
-2.56383e-05
-1.66273e-05
-7.65425e-06
0
0
-7.47226e-06
-1.45609e-05
-2.08547e-05
-2.57972e-05
-2.94443e-05
-3.55308e-05
-2.78663e-05
-1.34216e-05
0
0
-2.32539e-06
-4.60847e-06
-6.81937e-06
-8.9071e-06
-1.08327e-05
-1.25326e-05
-1.40147e-05
-1.52277e-05
-1.61654e-05
-1.74437e-05
-2.22632e-05
-2.39933e-05
-2.27305e-05
-2.0024e-05
-1.49147e-05
-1.02121e-05
-4.74653e-06
0
0
-2.0064e-06
-3.80324e-06
-5.19598e-06
-6.13395e-06
-7.33923e-06
-1.29648e-05
-1.21988e-05
-6.9504e-06
0
0
2.04774e-07
4.20077e-07
6.4769e-07
9.03095e-07
1.19457e-06
1.50567e-06
1.80501e-06
2.01254e-06
2.04192e-06
1.85746e-06
-2.20529e-07
-2.20282e-06
-3.7651e-06
-4.4259e-06
-4.41134e-06
-3.69435e-06
-1.88295e-06
0
0
2.76064e-06
5.437e-06
7.88901e-06
9.82944e-06
1.08171e-05
8.44034e-06
3.29999e-06
-4.46717e-07
0
0
2.58361e-06
5.13438e-06
7.62717e-06
1.00217e-05
1.22895e-05
1.43761e-05
1.62324e-05
1.78033e-05
1.90486e-05
1.9976e-05
2.07688e-05
1.91356e-05
1.4962e-05
1.10071e-05
6.00224e-06
2.78877e-06
9.62289e-07
0
0
7.6581e-06
1.49163e-05
2.13353e-05
2.64504e-05
2.98498e-05
3.01003e-05
1.86705e-05
5.95892e-06
0
0
5.2588e-06
1.04477e-05
1.55125e-05
2.03707e-05
2.49505e-05
2.9169e-05
3.29447e-05
3.62307e-05
3.89489e-05
4.10608e-05
4.36962e-05
4.14454e-05
3.40641e-05
2.63441e-05
1.64468e-05
9.11063e-06
3.81346e-06
0
0
1.04812e-05
2.04083e-05
2.92013e-05
3.62946e-05
4.12339e-05
4.34555e-05
2.89924e-05
1.09185e-05
0
0
5.23633e-06
1.03975e-05
1.54251e-05
2.02365e-05
2.47764e-05
2.89683e-05
3.27475e-05
3.60487e-05
3.88678e-05
4.11654e-05
4.56023e-05
4.5016e-05
3.8919e-05
3.14893e-05
2.04745e-05
1.26993e-05
5.29683e-06
0
0
1.02359e-05
1.99305e-05
2.85581e-05
3.566e-05
4.09385e-05
4.62344e-05
3.3669e-05
1.43523e-05
0
0
5.04966e-06
1.00292e-05
1.48835e-05
1.95427e-05
2.3952e-05
2.80516e-05
3.17901e-05
3.51368e-05
3.80585e-05
4.05626e-05
4.62905e-05
4.71313e-05
4.26953e-05
3.57041e-05
2.43748e-05
1.59859e-05
6.79479e-06
0
0
9.79563e-06
1.91076e-05
2.74819e-05
3.45508e-05
4.00925e-05
4.78348e-05
3.75599e-05
1.75616e-05
0
0
4.80551e-06
9.55009e-06
1.41848e-05
1.86499e-05
2.28985e-05
2.68831e-05
3.05655e-05
3.39163e-05
3.6914e-05
3.95522e-05
4.62325e-05
4.8309e-05
4.55388e-05
3.92859e-05
2.806e-05
1.91254e-05
8.28745e-06
0
0
9.30074e-06
1.81861e-05
2.62743e-05
3.32627e-05
3.89599e-05
4.86508e-05
4.08712e-05
2.0654e-05
0
0
4.55223e-06
9.05264e-06
1.34594e-05
1.77228e-05
2.18026e-05
2.56608e-05
2.92657e-05
3.25918e-05
3.56188e-05
3.83374e-05
4.57211e-05
4.88196e-05
4.76602e-05
4.23484e-05
3.15573e-05
2.21778e-05
9.77443e-06
0
0
8.8065e-06
1.72626e-05
2.50476e-05
3.19063e-05
3.76673e-05
4.89043e-05
4.37185e-05
2.36794e-05
0
0
4.3021e-06
8.56063e-06
1.27404e-05
1.68002e-05
2.07061e-05
2.44254e-05
2.79306e-05
3.12029e-05
3.42179e-05
3.69673e-05
4.48888e-05
4.88257e-05
4.91743e-05
4.50037e-05
3.49266e-05
2.51838e-05
1.12608e-05
0
0
8.3103e-06
1.63275e-05
2.37823e-05
3.04588e-05
3.62155e-05
4.86633e-05
4.62195e-05
2.66787e-05
0
0
4.04155e-06
8.04697e-06
1.1987e-05
1.58264e-05
1.95388e-05
2.30957e-05
2.64693e-05
2.96394e-05
3.25986e-05
3.5337e-05
4.36602e-05
4.83887e-05
5.01759e-05
4.74066e-05
3.82431e-05
2.81806e-05
1.27544e-05
0
0
7.75707e-06
1.52704e-05
2.23172e-05
2.87176e-05
3.43396e-05
4.78779e-05
4.85665e-05
2.96888e-05
0
0
3.73229e-06
7.43495e-06
1.10851e-05
1.46535e-05
1.81188e-05
2.14572e-05
2.4652e-05
2.76886e-05
3.05517e-05
3.32263e-05
4.16527e-05
4.73058e-05
5.10969e-05
4.9774e-05
4.1588e-05
3.12063e-05
1.42643e-05
0
0
7.12623e-06
1.4065e-05
2.06427e-05
2.67187e-05
3.21895e-05
4.67464e-05
5.10259e-05
3.27444e-05
0
0
3.45752e-06
6.89346e-06
1.02897e-05
1.36258e-05
1.68828e-05
2.00457e-05
2.30988e-05
2.60295e-05
2.88219e-05
3.14746e-05
4.01444e-05
4.65094e-05
5.23553e-05
5.23884e-05
4.50583e-05
3.42964e-05
1.5801e-05
0
0
6.7623e-06
1.33834e-05
1.97298e-05
2.56818e-05
3.11472e-05
4.67516e-05
5.39324e-05
3.58844e-05
0
0
3.38348e-06
6.74995e-06
1.00845e-05
1.33711e-05
1.65933e-05
1.9739e-05
2.27954e-05
2.57505e-05
2.85907e-05
3.13107e-05
4.04563e-05
4.75043e-05
5.46874e-05
5.56719e-05
4.87529e-05
3.74891e-05
1.73759e-05
0
0
6.86271e-06
1.36015e-05
2.00976e-05
2.62433e-05
3.19457e-05
4.88009e-05
5.7649e-05
3.91381e-05
0
0
3.55771e-06
7.09884e-06
1.06089e-05
1.40726e-05
1.7474e-05
2.08011e-05
2.4038e-05
2.7176e-05
3.02012e-05
3.31038e-05
4.30253e-05
5.06949e-05
5.8593e-05
5.98947e-05
5.27969e-05
4.08088e-05
1.90016e-05
0
0
7.47412e-06
1.48147e-05
2.18937e-05
2.85962e-05
3.48211e-05
5.32196e-05
6.24515e-05
4.2522e-05
0
0
4.00922e-06
7.99867e-06
1.19506e-05
1.58469e-05
1.96693e-05
2.3403e-05
2.70273e-05
3.05319e-05
3.39092e-05
3.71485e-05
4.81433e-05
5.64862e-05
6.44135e-05
6.53e-05
5.73272e-05
4.42655e-05
2.06927e-05
0
0
7.13625e-06
1.41505e-05
2.09248e-05
2.73547e-05
3.3342e-05
5.13258e-05
6.13203e-05
4.31601e-05
0
0
3.18513e-06
6.3571e-06
9.50483e-06
1.26154e-05
1.56773e-05
1.86795e-05
2.16093e-05
2.44593e-05
2.72206e-05
2.98824e-05
3.91674e-05
4.66001e-05
5.45673e-05
5.72189e-05
5.25369e-05
4.17769e-05
2.02051e-05
0
0
5.67144e-06
1.12621e-05
1.66934e-05
2.18935e-05
2.67968e-05
4.2184e-05
5.32308e-05
4.02622e-05
0
0
2.53563e-06
5.06247e-06
7.57288e-06
1.00586e-05
1.25113e-05
1.4924e-05
1.72883e-05
1.95983e-05
2.18447e-05
2.40249e-05
3.17803e-05
3.82067e-05
4.58888e-05
4.93303e-05
4.70466e-05
3.85612e-05
1.91937e-05
0
0
4.52934e-06
9.00405e-06
1.33708e-05
1.75796e-05
2.15875e-05
3.4599e-05
4.56259e-05
3.67884e-05
0
0
2.03215e-06
4.05832e-06
6.07343e-06
8.07161e-06
1.00474e-05
1.19958e-05
1.39116e-05
1.57903e-05
1.76253e-05
1.94143e-05
2.5857e-05
3.13584e-05
3.83941e-05
4.21026e-05
4.14593e-05
3.49142e-05
1.78387e-05
0
0
3.64485e-06
7.25209e-06
1.07849e-05
1.42079e-05
1.74897e-05
2.84246e-05
3.87924e-05
3.30382e-05
0
0
1.64107e-06
3.27796e-06
4.9071e-06
6.5244e-06
8.12595e-06
9.70824e-06
1.12676e-05
1.28005e-05
1.43032e-05
1.57731e-05
2.11229e-05
2.57871e-05
3.20435e-05
3.56951e-05
3.61024e-05
3.11271e-05
1.62814e-05
0
0
2.95371e-06
5.88076e-06
8.75494e-06
1.1551e-05
1.42458e-05
2.34012e-05
3.28045e-05
2.92621e-05
0
0
1.33382e-06
2.66464e-06
3.98992e-06
5.30669e-06
6.61218e-06
7.90379e-06
9.1788e-06
1.04348e-05
1.1669e-05
1.28794e-05
1.7319e-05
2.1251e-05
2.67107e-05
3.01269e-05
3.11525e-05
2.74094e-05
1.46354e-05
0
0
2.40753e-06
4.7957e-06
7.1454e-06
9.43818e-06
1.16567e-05
1.93047e-05
2.7637e-05
2.56303e-05
0
0
1.08969e-06
2.17717e-06
3.26058e-06
4.33773e-06
5.4066e-06
6.46525e-06
7.51165e-06
8.54399e-06
9.5603e-06
1.05589e-05
1.42436e-05
1.75459e-05
2.22509e-05
2.53451e-05
2.66914e-05
2.38951e-05
1.29877e-05
0
0
1.97112e-06
3.92787e-06
5.85602e-06
7.74181e-06
9.57205e-06
1.59521e-05
2.3219e-05
2.22465e-05
0
0
8.93704e-07
1.78575e-06
2.67476e-06
3.55906e-06
4.43716e-06
5.30757e-06
6.16878e-06
7.01937e-06
7.85798e-06
8.6832e-06
1.1742e-05
1.45084e-05
1.85277e-05
2.12697e-05
2.27401e-05
2.06609e-05
1.14011e-05
0
0
1.6192e-06
3.22755e-06
4.81426e-06
6.36885e-06
7.88117e-06
1.31985e-05
1.94651e-05
1.91654e-05
0
0
7.35043e-07
1.46882e-06
2.20028e-06
2.92815e-06
3.65132e-06
4.36862e-06
5.07891e-06
5.78114e-06
6.47414e-06
7.15695e-06
9.69601e-06
1.20094e-05
1.54216e-05
1.78147e-05
1.92843e-05
1.77428e-05
9.91685e-06
0
0
1.3332e-06
2.65804e-06
3.9662e-06
5.24963e-06
6.50066e-06
1.09289e-05
1.62895e-05
1.64075e-05
0
0
6.05752e-07
1.21053e-06
1.81353e-06
2.41373e-06
3.01028e-06
3.60222e-06
4.18869e-06
4.76877e-06
5.34181e-06
5.90676e-06
8.01575e-06
9.94553e-06
1.28313e-05
1.48974e-05
1.62901e-05
1.51481e-05
8.56003e-06
0
0
1.09959e-06
2.19279e-06
3.27312e-06
4.33422e-06
5.36951e-06
9.05525e-06
1.36138e-05
1.39667e-05
0
0
4.99735e-07
9.98728e-07
1.49625e-06
1.99169e-06
2.48423e-06
2.97334e-06
3.45816e-06
3.93825e-06
4.41278e-06
4.8813e-06
6.62963e-06
8.24333e-06
1.06633e-05
1.24458e-05
1.37183e-05
1.28592e-05
7.3445e-06
0
0
7.07257e-07
1.41074e-06
2.10665e-06
2.79126e-06
3.46098e-06
5.86387e-06
8.93275e-06
9.47596e-06
0
0
2.48962e-07
4.97614e-07
7.45634e-07
9.92762e-07
1.23859e-06
1.48296e-06
1.72539e-06
1.96578e-06
2.20359e-06
2.43881e-06
3.32118e-06
4.1448e-06
5.40578e-06
6.37819e-06
7.16395e-06
6.89889e-06
4.00494e-06
0
0
3.54324e-07
7.06925e-07
1.0561e-06
1.40019e-06
1.73755e-06
2.95695e-06
4.56075e-06
4.99169e-06
0
0
1.2542e-07
2.50688e-07
3.75667e-07
5.00215e-07
6.24165e-07
7.47405e-07
8.69746e-07
9.91103e-07
1.11124e-06
1.23013e-06
1.67731e-06
2.09586e-06
2.74444e-06
3.24944e-06
3.70186e-06
3.60423e-06
2.1117e-06
0
0
1.79613e-07
3.58399e-07
5.35535e-07
7.10209e-07
8.81642e-07
1.50387e-06
2.33715e-06
2.59953e-06
0
0
6.42568e-08
1.28441e-07
1.92484e-07
2.56318e-07
3.1986e-07
3.83058e-07
4.45819e-07
5.08102e-07
5.69788e-07
6.30865e-07
8.61034e-07
1.07728e-06
1.41204e-06
1.67588e-06
1.91925e-06
1.8803e-06
1.10767e-06
0
0
9.16771e-08
1.82946e-07
2.73399e-07
3.62633e-07
4.50265e-07
7.68741e-07
1.19948e-06
1.34541e-06
0
0
3.10512e-08
6.2065e-08
9.30139e-08
1.23857e-07
1.54567e-07
1.85103e-07
2.15438e-07
2.45532e-07
2.75345e-07
3.04851e-07
4.165e-07
5.21077e-07
6.84944e-07
8.13502e-07
9.37793e-07
9.17581e-07
5.4528e-07
0
0
3.42211e-08
6.82917e-08
1.02066e-07
1.354e-07
1.68173e-07
2.8715e-07
4.49367e-07
5.10297e-07
0
0
0
0
0
0
0
0
0
0
0
0
0
0
0
0
0
0
0
0
SCALARS Displacement_Z double 1
LOOKUP_TABLE default
0.000606352
0.000605513
0.000602975
0.00059878
0.000592932
0.000585445
0.000576334
0.000565641
0.000553058
0.000538488
0.000520131
0.000460089
0.000409072
0.000330389
0.000267078
0.000185226
0.000132561
8.21716e-05
6.71657e-05
0.000608682
0.000605233
0.000594947
0.000578015
0.000554201
0.0005222
0.000410032
0.000267176
0.000132451
6.70058e-05
0.000609476
0.000608592
0.000605957
0.000601583
0.000595489
0.000587687
0.000578188
0.000567023
0.000554184
0.000539416
0.000523481
0.000463647
0.000410824
0.000331181
0.000267291
0.000185073
0.000132373
8.19336e-05
6.68755e-05
0.000608973
0.00060541
0.000594799
0.000577334
0.000553226
0.000523833
0.000411341
0.000267367
0.00013232
6.67839e-05
0.000607339
0.00060644
0.000603753
0.000599297
0.000593092
0.000585167
0.000575582
0.000564426
0.00055181
0.000537965
0.000523343
0.000465122
0.000411612
0.000331637
0.000267458
0.000185068
0.000132298
8.18084e-05
6.67221e-05
0.0006047
0.000601125
0.000590502
0.000573144
0.000549812
0.000522216
0.000411607
0.000267503
0.000132297
6.66934e-05
0.000601046
0.000600159
0.000597514
0.000593126
0.000587033
0.000579286
0.000569982
0.000559234
0.00054723
0.000534162
0.000520323
0.000464249
0.000411331
0.000331684
0.000267565
0.000185202
0.000132326
8.18002e-05
6.66946e-05
0.000596325
0.000592868
0.000582623
0.000565999
0.000543913
0.000517814
0.000410758
0.000267575
0.000132377
6.67318e-05
0.000590334
0.000589492
0.000586981
0.000582821
0.000577052
0.000569744
0.000560986
0.000550907
0.000539672
0.000527481
0.000514547
0.000461194
0.000409966
0.00033138
0.000267605
0.000185477
0.000132459
8.19043e-05
6.67985e-05
0.000578369
0.00057521
0.000565874
0.00055084
0.000530928
0.000507637
0.000407741
0.000267375
0.000132566
6.69388e-05
0.00056655
0.00056581
0.000563591
0.000559927
0.000554858
0.000548459
0.000540816
0.000532047
0.000522295
0.000511714
0.00050055
0.000452732
0.000405263
0.000329786
0.000267101
0.00018585
0.00013268
8.21776e-05
6.71077e-05
0.000554974
0.000552211
0.00054406
0.00053097
0.000513719
0.000493433
0.000402602
0.000266788
0.000132788
6.72816e-05
0.000543689
0.000543048
0.000541114
0.000537927
0.000533519
0.000527961
0.000521322
0.000513721
0.000505251
0.000496038
0.000486249
0.000443417
0.000399723
0.000327607
0.000266413
0.000186115
0.000132904
8.25467e-05
6.7483e-05
0.000532721
0.000530324
0.000523248
0.000511887
0.000496888
0.00047909
0.000396679
0.000265979
0.000133019
6.77003e-05
0.000522084
0.000521529
0.000519851
0.000517084
0.000513258
0.000508431
0.000502665
0.000496044
0.000488651
0.000480574
0.00047193
0.000433561
0.000393456
0.000324878
0.000265468
0.000186247
0.000133142
8.29979e-05
6.79449e-05
0.00051177
0.00050969
0.000503542
0.000493654
0.000480538
0.000464835
0.000390108
0.000264885
0.000133264
6.82086e-05
0.000501778
0.000501296
0.000499836
0.00049743
0.000494098
0.00048989
0.000484853
0.000479056
0.000472563
0.00046544
0.000457779
0.000423369
0.000386615
0.000321632
0.000264216
0.000186225
0.000133393
8.35257e-05
6.84998e-05
0.00049209
0.000490277
0.000484913
0.00047626
0.00046472
0.000450801
0.000383034
0.000263468
0.000133521
6.88116e-05
0.000482701
0.00048228
0.000481005
0.0004789
0.000475983
0.000472294
0.00046787
0.000462761
0.000457023
0.000450711
0.000443884
0.000412982
0.00037934
0.000317902
0.000262622
0.000186031
0.000133654
8.41271e-05
6.91509e-05
0.000473594
0.000472006
0.000467297
0.00045968
0.000449462
0.000437067
0.000375591
0.000261687
0.000133787
6.9512e-05
0.000464771
0.000464404
0.000463281
0.00046143
0.000458859
0.000455605
0.000451693
0.000447167
0.000442064
0.000436436
0.00043032
0.00040249
0.000371752
0.000313713
0.000260647
0.000185649
0.000133925
8.4801e-05
6.99007e-05
0.000456226
0.000454827
0.000450667
0.000443913
0.000434828
0.000423698
0.00036783
0.000259509
0.000134063
7.03119e-05
0.000447991
0.000447672
0.000446675
0.000445039
0.000442755
0.000439867
0.000436381
0.000432345
0.000427779
0.000422727
0.000417242
0.000391982
0.000363801
0.000309084
0.000258268
0.000185073
0.000134206
8.55476e-05
7.07513e-05
0.000440159
0.000438913
0.000435205
0.000429166
0.000420996
0.000410951
0.000359696
0.000256934
0.000134351
7.12141e-05
0.000432751
0.000432453
0.000431563
0.000430087
0.000428038
0.000425432
0.000422289
0.000418634
0.000414492
0.000409902
0.000404896
0.000381789
0.000355517
0.000303992
0.000255498
0.000184305
0.000134502
8.63683e-05
7.17054e-05
0.0004257
0.000424565
0.000421195
0.000415694
0.000408227
0.000399006
0.000351339
0.000253986
0.000134655
7.22206e-05
0.000418908
0.000418632
0.000417817
0.000416462
0.000414582
0.000412186
0.000409296
0.00040593
0.000402115
0.000397871
0.00039323
0.000371849
0.000347095
0.000298496
0.000252389
0.000183365
0.000134816
8.72659e-05
7.27651e-05
0.000412241
0.000411191
0.000408076
0.000402986
0.000396062
0.000387498
0.000342831
0.000250725
0.000134979
7.33339e-05
0.000405564
0.000405308
0.000404552
0.000403296
0.000401552
0.000399328
0.000396645
0.000393518
0.000389972
0.000386024
0.000381698
0.000361792
0.000338481
0.000292655
0.000249003
0.000182293
0.00013515
8.82448e-05
7.3933e-05
0.000398746
0.000397774
0.000394887
0.000390166
0.000383738
0.000375781
0.000334053
0.000247234
0.000135326
7.45585e-05
0.000391641
0.00039141
0.000390712
0.000389556
0.000387947
0.000385898
0.000383421
0.000380537
0.000377261
0.000373612
0.000369612
0.000351183
0.000329508
0.00028651
0.000245432
0.000181146
0.000135513
8.93084e-05
7.52152e-05
0.000361922
0.000361152
0.000358857
0.000355094
0.000349953
0.000343542
0.000309568
0.000235893
0.000134109
7.62056e-05
0.00033544
0.000335274
0.000334793
0.000333989
0.000332876
0.000331448
0.000329726
0.000327707
0.000325411
0.000322849
0.000320035
0.000306896
0.000291043
0.0002589
0.000226328
0.000172749
0.000132504
9.03421e-05
7.71296e-05
0.000311754
0.000311213
0.0003096
0.000306948
0.00030331
0.000298747
0.000274017
0.000217126
0.000130783
7.79641e-05
0.000290516
0.0002904
0.000290058
0.000289486
0.000288693
0.000287677
0.000286446
0.000285002
0.000283356
0.000281518
0.000279494
0.000269927
0.000258238
0.00023386
0.000208069
0.000163804
0.000128878
9.08358e-05
7.87012e-05
0.000271394
0.000271005
0.000269843
0.000267928
0.000265293
0.000261975
0.000243661
0.000199438
0.000126874
7.93208e-05
0.000254122
0.000254037
0.000253788
0.000253372
0.000252793
0.000252051
0.000251152
0.000250094
0.000248886
0.000247533
0.000246037
0.000238949
0.00023017
0.000211475
0.000191044
0.000154652
0.000124718
9.07817e-05
7.9818e-05
0.000238455
0.000238168
0.000237311
0.000235895
0.000233942
0.000231475
0.000217676
0.000183071
0.000122489
8.01905e-05
0.0002242
0.000224137
0.000223951
0.000223641
0.000223209
0.000222656
0.000221983
0.000221193
0.000220289
0.000219273
0.000218148
0.000212798
0.000206102
0.000191616
0.000175381
0.000145558
0.000120141
9.0188e-05
8.04242e-05
0.000211181
0.000210965
0.00021032
0.000209253
0.000207778
0.00020591
0.000195352
0.000168089
0.000117746
8.05332e-05
0.000199257
0.000199209
0.000199068
0.000198833
0.000198505
0.000198084
0.000197573
0.000196971
0.000196282
0.000195507
0.000194648
0.000190545
0.000185372
0.000174042
0.00016109
0.000136696
0.000115263
8.90811e-05
8.04957e-05
0.000188297
0.000188132
0.000187639
0.000186821
0.000185689
0.000184253
0.000176072
0.000154454
0.000112757
8.03379e-05
0.000178198
0.000178162
0.000178053
0.000177871
0.000177619
0.000177294
0.0001769
0.000176435
0.000175903
0.000175303
0.000174637
0.000171452
0.000167411
0.000158477
0.000148103
0.000128168
0.000110189
8.74997e-05
8.00328e-05
0.000168862
0.000168734
0.000168351
0.000167716
0.000166836
0.000165718
0.000159312
0.000142074
0.000107616
7.96149e-05
0.000160208
0.00016018
0.000160095
0.000159954
0.000159756
0.000159503
0.000159195
0.000158832
0.000158416
0.000157947
0.000157426
0.000154927
0.000151742
0.00014465
0.00013631
0.000120023
0.000105
8.54885e-05
7.90545e-05
0.000152165
0.000152064
0.000151764
0.000151266
0.000150575
0.000149696
0.000144637
0.000130826
0.000102393
7.83903e-05
0.000144669
0.000144646
0.00014458
0.000144468
0.000144313
0.000144113
0.000143871
0.000143585
0.000143256
0.000142886
0.000142475
0.000140498
0.000137969
0.000132307
0.000125583
0.000112274
9.97584e-05
8.30944e-05
7.75923e-05
0.000137664
0.000137585
0.000137347
0.000136954
0.000136406
0.00013571
0.000131687
0.00012058
9.71402e-05
7.67006e-05
0.000131102
0.000131084
0.000131031
0.000130943
0.00013082
0.000130662
0.000130469
0.000130242
0.000129981
0.000129686
0.000129359
0.000127785
0.000125765
0.000121223
0.00011579
0.000104912
9.45062e-05
8.03634e-05
7.56862e-05
0.000124938
0.000124875
0.000124686
0.000124373
0.000123937
0.000123382
0.000120166
0.000111204
9.18922e-05
7.45892e-05
0.000119135
0.00011912
0.000119078
0.000119007
0.000118909
0.000118782
0.000118629
0.000118447
0.000118239
0.000118004
0.000117744
0.00011648
0.000114866
0.000111201
0.000106804
9.7915e-05
8.927e-05
7.73385e-05
7.33819e-05
0.000100368
0.000100331
0.000100218
0.000100031
9.97696e-05
9.9436e-05
9.74993e-05
9.20283e-05
7.98745e-05
6.83791e-05
8.46771e-05
8.46701e-05
8.46513e-05
8.46191e-05
8.45752e-05
8.45179e-05
8.44489e-05
8.43668e-05
8.42732e-05
8.41672e-05
8.405e-05
8.3475e-05
8.27416e-05
8.10565e-05
7.9007e-05
7.47811e-05
7.04931e-05
6.43252e-05
6.22693e-05
7.1088e-05
7.10709e-05
7.10196e-05
7.09342e-05
7.08153e-05
7.06631e-05
6.9776e-05
6.72318e-05
6.14024e-05
5.56228e-05
5.89841e-05
5.89811e-05
5.89725e-05
5.8958e-05
5.8938e-05
5.8912e-05
5.88807e-05
5.88434e-05
5.88009e-05
5.87529e-05
5.86996e-05
5.8438e-05
5.81031e-05
5.7333e-05
5.63951e-05
5.44111e-05
5.23665e-05
4.93529e-05
4.83494e-05
4.79006e-05
4.7893e-05
4.78702e-05
4.78323e-05
4.77794e-05
4.77116e-05
4.73172e-05
4.61732e-05
4.35086e-05
4.07967e-05
3.75343e-05
3.7533e-05
3.75294e-05
3.75232e-05
3.75147e-05
3.75037e-05
3.74904e-05
3.74747e-05
3.74566e-05
3.74363e-05
3.74139e-05
3.7302e-05
3.71587e-05
3.68327e-05
3.64323e-05
3.55765e-05
3.46891e-05
3.33534e-05
3.29171e-05
2.76608e-05
2.76579e-05
2.76491e-05
2.76345e-05
2.76142e-05
2.7588e-05
2.74367e-05
2.69963e-05
2.59664e-05
2.48976e-05
1.81522e-05
1.81517e-05
1.81506e-05
1.81487e-05
1.81461e-05
1.81426e-05
1.81385e-05
1.81336e-05
1.8128e-05
1.81218e-05
1.8115e-05
1.80794e-05
1.80347e-05
1.79337e-05
1.78101e-05
1.75419e-05
1.72667e-05
1.68317e-05
1.67058e-05
8.9277e-06
8.92719e-06
8.92555e-06
8.92282e-06
8.91897e-06
8.91391e-06
8.88606e-06
8.80099e-06
8.62284e-06
8.42533e-06
-0
-0
-0
-0
-0
-0
-0
-0
-0
-0
-0
-0
-0
-0
-0
-0
-0
-0
-0
SCALARS Stress_R double 1
LOOKUP_TABLE default
6.37775
6.3188
6.27448
6.14413
6.03089
5.81961
5.66521
5.46194
5.06865
4.42592
2.8385
1.03467
0.208869
-0.162914
-0.417588
-0.395058
-0.321922
-0.237173
-0.215002
4.79972
4.71733
4.49221