# vtk DataFile Version 2.0
./vtk
ASCII

DATASET UNSTRUCTURED_GRID
POINTS 889 double
0 0 0.0
0.5 0 0.0
1 0 0.0
1.5 0 0.0
2 0 0.0
2.5 0 0.0
3 0 0.0
3.5 0 0.0
4 0 0.0
4.5 0 0.0
5 0 0.0
6.9457 0 0.0
8.8914 0 0.0
12.3514 0 0.0
15.8114 0 0.0
21.9642 0 0.0
28.1171 0 0.0
39.0585 0 0.0
50 0 0.0
0 -0.5 0.0
1 -0.5 0.0
2 -0.5 0.0
3 -0.5 0.0
4 -0.5 0.0
5 -0.5 0.0
8.8914 -0.5 0.0
15.8114 -0.5 0.0
28.1171 -0.5 0.0
50 -0.5 0.0
0 -1 0.0
0.5 -1 0.0
1 -1 0.0
1.5 -1 0.0
2 -1 0.0
2.5 -1 0.0
3 -1 0.0
3.5 -1 0.0
4 -1 0.0
4.5 -1 0.0
5 -1 0.0
6.9457 -1 0.0
8.8914 -1 0.0
12.3514 -1 0.0
15.8114 -1 0.0
21.9642 -1 0.0
28.1171 -1 0.0
39.0585 -1 0.0
50 -1 0.0
0 -1.5 0.0
1 -1.5 0.0
2 -1.5 0.0
3 -1.5 0.0
4 -1.5 0.0
5 -1.5 0.0
8.8914 -1.5 0.0
15.8114 -1.5 0.0
28.1171 -1.5 0.0
50 -1.5 0.0
0 -2 0.0
0.5 -2 0.0
1 -2 0.0
1.5 -2 0.0
2 -2 0.0
2.5 -2 0.0
3 -2 0.0
3.5 -2 0.0
4 -2 0.0
4.5 -2 0.0
5 -2 0.0
6.9457 -2 0.0
8.8914 -2 0.0
12.3514 -2 0.0
15.8114 -2 0.0
21.9642 -2 0.0
28.1171 -2 0.0
39.0585 -2 0.0
50 -2 0.0
0 -2.5 0.0
1 -2.5 0.0
2 -2.5 0.0
3 -2.5 0.0
4 -2.5 0.0
5 -2.5 0.0
8.8914 -2.5 0.0
15.8114 -2.5 0.0
28.1171 -2.5 0.0
50 -2.5 0.0
0 -3 0.0
0.5 -3 0.0
1 -3 0.0
1.5 -3 0.0
2 -3 0.0
2.5 -3 0.0
3 -3 0.0
3.5 -3 0.0
4 -3 0.0
4.5 -3 0.0
5 -3 0.0
6.9457 -3 0.0
8.8914 -3 0.0
12.3514 -3 0.0
15.8114 -3 0.0
21.9642 -3 0.0
28.1171 -3 0.0
39.0585 -3 0.0
50 -3 0.0
0 -3.5 0.0
1 -3.5 0.0
2 -3.5 0.0
3 -3.5 0.0
4 -3.5 0.0
5 -3.5 0.0
8.8914 -3.5 0.0
15.8114 -3.5 0.0
28.1171 -3.5 0.0
50 -3.5 0.0
0 -4 0.0
0.5 -4 0.0
1 -4 0.0
1.5 -4 0.0
2 -4 0.0
2.5 -4 0.0
3 -4 0.0
3.5 -4 0.0
4 -4 0.0
4.5 -4 0.0
5 -4 0.0
6.9457 -4 0.0
8.8914 -4 0.0
12.3514 -4 0.0
15.8114 -4 0.0
21.9642 -4 0.0
28.1171 -4 0.0
39.0585 -4 0.0
50 -4 0.0
0 -4.5 0.0
1 -4.5 0.0
2 -4.5 0.0
3 -4.5 0.0
4 -4.5 0.0
5 -4.5 0.0
8.8914 -4.5 0.0
15.8114 -4.5 0.0
28.1171 -4.5 0.0
50 -4.5 0.0
0 -5 0.0
0.5 -5 0.0
1 -5 0.0
1.5 -5 0.0
2 -5 0.0
2.5 -5 0.0
3 -5 0.0
3.5 -5 0.0
4 -5 0.0
4.5 -5 0.0
5 -5 0.0
6.9457 -5 0.0
8.8914 -5 0.0
12.3514 -5 0.0
15.8114 -5 0.0
21.9642 -5 0.0
28.1171 -5 0.0
39.0585 -5 0.0
50 -5 0.0
0 -5.5 0.0
1 -5.5 0.0
2 -5.5 0.0
3 -5.5 0.0
4 -5.5 0.0
5 -5.5 0.0
8.8914 -5.5 0.0
15.8114 -5.5 0.0
28.1171 -5.5 0.0
50 -5.5 0.0
0 -6 0.0
0.5 -6 0.0
1 -6 0.0
1.5 -6 0.0
2 -6 0.0
2.5 -6 0.0
3 -6 0.0
3.5 -6 0.0
4 -6 0.0
4.5 -6 0.0
5 -6 0.0
6.9457 -6 0.0
8.8914 -6 0.0
12.3514 -6 0.0
15.8114 -6 0.0
21.9642 -6 0.0
28.1171 -6 0.0
39.0585 -6 0.0
50 -6 0.0
0 -6.5 0.0
1 -6.5 0.0
2 -6.5 0.0
3 -6.5 0.0
4 -6.5 0.0
5 -6.5 0.0
8.8914 -6.5 0.0
15.8114 -6.5 0.0
28.1171 -6.5 0.0
50 -6.5 0.0
0 -7 0.0
0.5 -7 0.0
1 -7 0.0
1.5 -7 0.0
2 -7 0.0
2.5 -7 0.0
3 -7 0.0
3.5 -7 0.0
4 -7 0.0
4.5 -7 0.0
5 -7 0.0
6.9457 -7 0.0
8.8914 -7 0.0
12.3514 -7 0.0
15.8114 -7 0.0
21.9642 -7 0.0
28.1171 -7 0.0
39.0585 -7 0.0
50 -7 0.0
0 -7.5 0.0
1 -7.5 0.0
2 -7.5 0.0
3 -7.5 0.0
4 -7.5 0.0
5 -7.5 0.0
8.8914 -7.5 0.0
15.8114 -7.5 0.0
28.1171 -7.5 0.0
50 -7.5 0.0
0 -8 0.0
0.5 -8 0.0
1 -8 0.0
1.5 -8 0.0
2 -8 0.0
2.5 -8 0.0
3 -8 0.0
3.5 -8 0.0
4 -8 0.0
4.5 -8 0.0
5 -8 0.0
6.9457 -8 0.0
8.8914 -8 0.0
12.3514 -8 0.0
15.8114 -8 0.0
21.9642 -8 0.0
28.1171 -8 0.0
39.0585 -8 0.0
50 -8 0.0
0 -8.5 0.0
1 -8.5 0.0
2 -8.5 0.0
3 -8.5 0.0
4 -8.5 0.0
5 -8.5 0.0
8.8914 -8.5 0.0
15.8114 -8.5 0.0
28.1171 -8.5 0.0
50 -8.5 0.0
0 -9 0.0
0.5 -9 0.0
1 -9 0.0
1.5 -9 0.0
2 -9 0.0
2.5 -9 0.0
3 -9 0.0
3.5 -9 0.0
4 -9 0.0
4.5 -9 0.0
5 -9 0.0
6.9457 -9 0.0
8.8914 -9 0.0
12.3514 -9 0.0
15.8114 -9 0.0
21.9642 -9 0.0
28.1171 -9 0.0
39.0585 -9 0.0
50 -9 0.0
0 -9.5 0.0
1 -9.5 0.0
2 -9.5 0.0
3 -9.5 0.0
4 -9.5 0.0
5 -9.5 0.0
8.8914 -9.5 0.0
15.8114 -9.5 0.0
28.1171 -9.5 0.0
50 -9.5 0.0
0 -10 0.0
0.5 -10 0.0
1 -10 0.0
1.5 -10 0.0
2 -10 0.0
2.5 -10 0.0
3 -10 0.0
3.5 -10 0.0
4 -10 0.0
4.5 -10 0.0
5 -10 0.0
6.9457 -10 0.0
8.8914 -10 0.0
12.3514 -10 0.0
15.8114 -10 0.0
21.9642 -10 0.0
28.1171 -10 0.0
39.0585 -10 0.0
50 -10 0.0
0 -10.5 0.0
1 -10.5 0.0
2 -10.5 0.0
3 -10.5 0.0
4 -10.5 0.0
5 -10.5 0.0
8.8914 -10.5 0.0
15.8114 -10.5 0.0
28.1171 -10.5 0.0
50 -10.5 0.0
0 -11 0.0
0.5 -11 0.0
1 -11 0.0
1.5 -11 0.0
2 -11 0.0
2.5 -11 0.0
3 -11 0.0
3.5 -11 0.0
4 -11 0.0
4.5 -11 0.0
5 -11 0.0
6.9457 -11 0.0
8.8914 -11 0.0
12.3514 -11 0.0
15.8114 -11 0.0
21.9642 -11 0.0
28.1171 -11 0.0
39.0585 -11 0.0
50 -11 0.0
0 -11.5 0.0
1 -11.5 0.0
2 -11.5 0.0
3 -11.5 0.0
4 -11.5 0.0
5 -11.5 0.0
8.8914 -11.5 0.0
15.8114 -11.5 0.0
28.1171 -11.5 0.0
50 -11.5 0.0
0 -12 0.0
0.5 -12 0.0
1 -12 0.0
1.5 -12 0.0
2 -12 0.0
2.5 -12 0.0
3 -12 0.0
3.5 -12 0.0
4 -12 0.0
4.5 -12 0.0
5 -12 0.0
6.9457 -12 0.0
8.8914 -12 0.0
12.3514 -12 0.0
15.8114 -12 0.0
21.9642 -12 0.0
28.1171 -12 0.0
39.0585 -12 0.0
50 -12 0.0
0 -12.5 0.0
1 -12.5 0.0
2 -12.5 0.0
3 -12.5 0.0
4 -12.5 0.0
5 -12.5 0.0
8.8914 -12.5 0.0
15.8114 -12.5 0.0
28.1171 -12.5 0.0
50 -12.5 0.0
0 -13 0.0
0.5 -13 0.0
1 -13 0.0
1.5 -13 0.0
2 -13 0.0
2.5 -13 0.0
3 -13 0.0
3.5 -13 0.0
4 -13 0.0
4.5 -13 0.0
5 -13 0.0
6.9457 -13 0.0
8.8914 -13 0.0
12.3514 -13 0.0
15.8114 -13 0.0
21.9642 -13 0.0
28.1171 -13 0.0
39.0585 -13 0.0
50 -13 0.0
0 -13.5 0.0
1 -13.5 0.0
2 -13.5 0.0
3 -13.5 0.0
4 -13.5 0.0
5 -13.5 0.0
8.8914 -13.5 0.0
15.8114 -13.5 0.0
28.1171 -13.5 0.0
50 -13.5 0.0
0 -14 0.0
0.5 -14 0.0
1 -14 0.0
1.5 -14 0.0
2 -14 0.0
2.5 -14 0.0
3 -14 0.0
3.5 -14 0.0
4 -14 0.0
4.5 -14 0.0
5 -14 0.0
6.9457 -14 0.0
8.8914 -14 0.0
12.3514 -14 0.0
15.8114 -14 0.0
21.9642 -14 0.0
28.1171 -14 0.0
39.0585 -14 0.0
50 -14 0.0
0 -14.5 0.0
1 -14.5 0.0
2 -14.5 0.0
3 -14.5 0.0
4 -14.5 0.0
5 -14.5 0.0
8.8914 -14.5 0.0
15.8114 -14.5 0.0
28.1171 -14.5 0.0
50 -14.5 0.0
0 -15 0.0
0.5 -15 0.0
1 -15 0.0
1.5 -15 0.0
2 -15 0.0
2.5 -15 0.0
3 -15 0.0
3.5 -15 0.0
4 -15 0.0
4.5 -15 0.0
5 -15 0.0
6.9457 -15 0.0
8.8914 -15 0.0
12.3514 -15 0.0
15.8114 -15 0.0
21.9642 -15 0.0
28.1171 -15 0.0
39.0585 -15 0.0
50 -15 0.0
0 -16.5 0.0
1 -16.5 0.0
2 -16.5 0.0
3 -16.5 0.0
4 -16.5 0.0
5 -16.5 0.0
8.8914 -16.5 0.0
15.8114 -16.5 0.0
28.1171 -16.5 0.0
50 -16.5 0.0
0 -18 0.0
0.5 -18 0.0
1 -18 0.0
1.5 -18 0.0
2 -18 0.0
2.5 -18 0.0
3 -18 0.0
3.5 -18 0.0
4 -18 0.0
4.5 -18 0.0
5 -18 0.0
6.9457 -18 0.0
8.8914 -18 0.0
12.3514 -18 0.0
15.8114 -18 0.0
21.9642 -18 0.0
28.1171 -18 0.0
39.0585 -18 0.0
50 -18 0.0
0 -19.5 0.0
1 -19.5 0.0
2 -19.5 0.0
3 -19.5 0.0
4 -19.5 0.0
5 -19.5 0.0
8.8914 -19.5 0.0
15.8114 -19.5 0.0
28.1171 -19.5 0.0
50 -19.5 0.0
0 -21 0.0
0.5 -21 0.0
1 -21 0.0
1.5 -21 0.0
2 -21 0.0
2.5 -21 0.0
3 -21 0.0
3.5 -21 0.0
4 -21 0.0
4.5 -21 0.0
5 -21 0.0
6.9457 -21 0.0
8.8914 -21 0.0
12.3514 -21 0.0
15.8114 -21 0.0
21.9642 -21 0.0
28.1171 -21 0.0
39.0585 -21 0.0
50 -21 0.0
0 -22.5 0.0
1 -22.5 0.0
2 -22.5 0.0
3 -22.5 0.0
4 -22.5 0.0
5 -22.5 0.0
8.8914 -22.5 0.0
15.8114 -22.5 0.0
28.1171 -22.5 0.0
50 -22.5 0.0
0 -24 0.0
0.5 -24 0.0
1 -24 0.0
1.5 -24 0.0
2 -24 0.0
2.5 -24 0.0
3 -24 0.0
3.5 -24 0.0
4 -24 0.0
4.5 -24 0.0
5 -24 0.0
6.9457 -24 0.0
8.8914 -24 0.0
12.3514 -24 0.0
15.8114 -24 0.0
21.9642 -24 0.0
28.1171 -24 0.0
39.0585 -24 0.0
50 -24 0.0
0 -25.5 0.0
1 -25.5 0.0
2 -25.5 0.0
3 -25.5 0.0
4 -25.5 0.0
5 -25.5 0.0
8.8914 -25.5 0.0
15.8114 -25.5 0.0
28.1171 -25.5 0.0
50 -25.5 0.0
0 -27 0.0
0.5 -27 0.0
1 -27 0.0
1.5 -27 0.0
2 -27 0.0
2.5 -27 0.0
3 -27 0.0
3.5 -27 0.0
4 -27 0.0
4.5 -27 0.0
5 -27 0.0
6.9457 -27 0.0
8.8914 -27 0.0
12.3514 -27 0.0
15.8114 -27 0.0
21.9642 -27 0.0
28.1171 -27 0.0
39.0585 -27 0.0
50 -27 0.0
0 -28.5 0.0
1 -28.5 0.0
2 -28.5 0.0
3 -28.5 0.0
4 -28.5 0.0
5 -28.5 0.0
8.8914 -28.5 0.0
15.8114 -28.5 0.0
28.1171 -28.5 0.0
50 -28.5 0.0
0 -30 0.0
0.5 -30 0.0
1 -30 0.0
1.5 -30 0.0
2 -30 0.0
2.5 -30 0.0
3 -30 0.0
3.5 -30 0.0
4 -30 0.0
4.5 -30 0.0
5 -30 0.0
6.9457 -30 0.0
8.8914 -30 0.0
12.3514 -30 0.0
15.8114 -30 0.0
21.9642 -30 0.0
28.1171 -30 0.0
39.0585 -30 0.0
50 -30 0.0
0 -31.5 0.0
1 -31.5 0.0
2 -31.5 0.0
3 -31.5 0.0
4 -31.5 0.0
5 -31.5 0.0
8.8914 -31.5 0.0
15.8114 -31.5 0.0
28.1171 -31.5 0.0
50 -31.5 0.0
0 -33 0.0
0.5 -33 0.0
1 -33 0.0
1.5 -33 0.0
2 -33 0.0
2.5 -33 0.0
3 -33 0.0
3.5 -33 0.0
4 -33 0.0
4.5 -33 0.0
5 -33 0.0
6.9457 -33 0.0
8.8914 -33 0.0
12.3514 -33 0.0
15.8114 -33 0.0
21.9642 -33 0.0
28.1171 -33 0.0
39.0585 -33 0.0
50 -33 0.0
0 -34.5 0.0
1 -34.5 0.0
2 -34.5 0.0
3 -34.5 0.0
4 -34.5 0.0
5 -34.5 0.0
8.8914 -34.5 0.0
15.8114 -34.5 0.0
28.1171 -34.5 0.0
50 -34.5 0.0
0 -36 0.0
0.5 -36 0.0
1 -36 0.0
1.5 -36 0.0
2 -36 0.0
2.5 -36 0.0
3 -36 0.0
3.5 -36 0.0
4 -36 0.0
4.5 -36 0.0
5 -36 0.0
6.9457 -36 0.0
8.8914 -36 0.0
12.3514 -36 0.0
15.8114 -36 0.0
21.9642 -36 0.0
28.1171 -36 0.0
39.0585 -36 0.0
50 -36 0.0
0 -37.5 0.0
1 -37.5 0.0
2 -37.5 0.0
3 -37.5 0.0
4 -37.5 0.0
5 -37.5 0.0
8.8914 -37.5 0.0
15.8114 -37.5 0.0
28.1171 -37.5 0.0
50 -37.5 0.0
0 -39 0.0
0.5 -39 0.0
1 -39 0.0
1.5 -39 0.0
2 -39 0.0
2.5 -39 0.0
3 -39 0.0
3.5 -39 0.0
4 -39 0.0
4.5 -39 0.0
5 -39 0.0
6.9457 -39 0.0
8.8914 -39 0.0
12.3514 -39 0.0
15.8114 -39 0.0
21.9642 -39 0.0
28.1171 -39 0.0
39.0585 -39 0.0
50 -39 0.0
0 -40.5 0.0
1 -40.5 0.0
2 -40.5 0.0
3 -40.5 0.0
4 -40.5 0.0
5 -40.5 0.0
8.8914 -40.5 0.0
15.8114 -40.5 0.0
28.1171 -40.5 0.0
50 -40.5 0.0
0 -42 0.0
0.5 -42 0.0
1 -42 0.0
1.5 -42 0.0
2 -42 0.0
2.5 -42 0.0
3 -42 0.0
3.5 -42 0.0
4 -42 0.0
4.5 -42 0.0
5 -42 0.0
6.9457 -42 0.0
8.8914 -42 0.0
12.3514 -42 0.0
15.8114 -42 0.0
21.9642 -42 0.0
28.1171 -42 0.0
39.0585 -42 0.0
50 -42 0.0
0 -43.5 0.0
1 -43.5 0.0
2 -43.5 0.0
3 -43.5 0.0
4 -43.5 0.0
5 -43.5 0.0
8.8914 -43.5 0.0
15.8114 -43.5 0.0
28.1171 -43.5 0.0
50 -43.5 0.0
0 -45 0.0
0.5 -45 0.0
1 -45 0.0
1.5 -45 0.0
2 -45 0.0
2.5 -45 0.0
3 -45 0.0
3.5 -45 0.0
4 -45 0.0
4.5 -45 0.0
5 -45 0.0
6.9457 -45 0.0
8.8914 -45 0.0
12.3514 -45 0.0
15.8114 -45 0.0
21.9642 -45 0.0
28.1171 -45 0.0
39.0585 -45 0.0
50 -45 0.0
0 -50.5 0.0
1 -50.5 0.0
2 -50.5 0.0
3 -50.5 0.0
4 -50.5 0.0
5 -50.5 0.0
8.8914 -50.5 0.0
15.8114 -50.5 0.0
28.1171 -50.5 0.0
50 -50.5 0.0
0 -56 0.0
0.5 -56 0.0
1 -56 0.0
1.5 -56 0.0
2 -56 0.0
2.5 -56 0.0
3 -56 0.0
3.5 -56 0.0
4 -56 0.0
4.5 -56 0.0
5 -56 0.0
6.9457 -56 0.0
8.8914 -56 0.0
12.3514 -56 0.0
15.8114 -56 0.0
21.9642 -56 0.0
28.1171 -56 0.0
39.0585 -56 0.0
50 -56 0.0
0 -61.5 0.0
1 -61.5 0.0
2 -61.5 0.0
3 -61.5 0.0
4 -61.5 0.0
5 -61.5 0.0
8.8914 -61.5 0.0
15.8114 -61.5 0.0
28.1171 -61.5 0.0
[...]
POINT_DATA 889
SCALARS Displacement_R double 1
LOOKUP_TABLE default
0
-1.57747e-05
-3.13632e-05
-4.65891e-05
-6.12649e-05
-7.53162e-05
-8.85436e-05
-0.00010104
-0.000112199
-0.000121287
-0.000128376
-0.000137839
-0.000134144
-0.000118263
-9.85227e-05
-7.18192e-05
-4.82557e-05
-2.2664e-05
0
0
-2.19356e-05
-4.2673e-05
-6.0946e-05
-7.50761e-05
-8.52436e-05
-0.000100716
-7.74566e-05
-3.94799e-05
0
0
-6.8282e-06
-1.35256e-05
-1.99985e-05
-2.6092e-05
-3.16858e-05
-3.65901e-05
-4.08249e-05
-4.42413e-05
-4.68222e-05
-5.04187e-05
-6.39367e-05
-6.84343e-05
-6.4262e-05
-5.66311e-05
-4.32651e-05
-3.07161e-05
-1.45916e-05
0
0
-5.91834e-06
-1.11908e-05
-1.52223e-05
-1.78614e-05
-2.12823e-05
-3.7581e-05
-3.57997e-05
-2.18347e-05
0
0
5.65367e-07
1.16323e-06
1.79895e-06
2.5204e-06
3.35241e-06
4.24567e-06
5.10447e-06
5.69006e-06
5.73567e-06
5.14291e-06
-1.27574e-06
-7.4947e-06
-1.27267e-05
-1.51116e-05
-1.53361e-05
-1.29814e-05
-6.65529e-06
0
0
8.00685e-06
1.57506e-05
2.28026e-05
2.82962e-05
3.08928e-05
2.22364e-05
5.42451e-06
-4.16017e-06
0
0
7.54786e-06
1.49928e-05
2.22529e-05
2.92076e-05
3.57649e-05
4.17659e-05
4.70506e-05
5.14595e-05
5.48781e-05
5.73079e-05
5.82829e-05
5.20676e-05
3.80269e-05
2.58629e-05
1.22865e-05
4.62527e-06
1.21683e-06
0
0
2.24974e-05
4.37186e-05
6.22892e-05
7.67983e-05
8.60067e-05
8.26327e-05
4.60992e-05
1.32413e-05
0
0
1.55676e-05
3.09075e-05
4.58394e-05
6.01034e-05
7.3464e-05
8.56719e-05
9.64686e-05
0.000105736
0.000113242
0.00011888
0.000123607
0.000114174
8.95344e-05
6.62715e-05
3.98897e-05
2.18147e-05
9.09178e-06
0
0
3.05925e-05
5.94287e-05
8.46944e-05
0.000104674
0.000118028
0.000118958
7.3258e-05
2.67395e-05
0
0
1.50902e-05
2.99468e-05
4.43879e-05
5.81575e-05
7.10871e-05
8.29478e-05
9.35308e-05
0.000102646
0.000110302
0.000116429
0.000126771
0.000122347
0.000101671
7.98358e-05
5.08371e-05
3.16199e-05
1.34669e-05
0
0
2.90899e-05
5.6524e-05
8.07045e-05
0.000100274
0.000114429
0.000124661
8.55426e-05
3.62307e-05
0
0
1.41669e-05
2.81225e-05
4.16991e-05
5.469e-05
6.69299e-05
7.82416e-05
8.84768e-05
9.75631e-05
0.000105407
0.000112036
0.000126051
0.00012606
0.000110842
9.09024e-05
6.15491e-05
4.0816e-05
1.78518e-05
0
0
2.71048e-05
5.27742e-05
7.56732e-05
9.47568e-05
0.000109428
0.000126954
9.58117e-05
4.5292e-05
0
0
1.31328e-05
2.60877e-05
3.87204e-05
5.08588e-05
6.23677e-05
7.31145e-05
8.29889e-05
9.19151e-05
9.98384e-05
0.000106739
0.000123393
0.000127306
0.000117689
0.000100458
7.18881e-05
4.97589e-05
2.22223e-05
0
0
2.51034e-05
4.9014e-05
7.06458e-05
8.91592e-05
0.000104037
0.000127438
0.000104827
5.41768e-05
0
0
1.21608e-05
2.41751e-05
3.59243e-05
4.72706e-05
5.81003e-05
6.83098e-05
7.78048e-05
8.6524e-05
9.44174e-05
0.000101455
0.00012009
0.000127324
0.000123099
0.000109035
8.19663e-05
5.86008e-05
2.65905e-05
0
0
2.33192e-05
4.56649e-05
6.61529e-05
8.40888e-05
9.90106e-05
0.000127204
0.000113117
6.30172e-05
0
0
1.13313e-05
2.25438e-05
3.35403e-05
4.42087e-05
5.44561e-05
6.41968e-05
7.33529e-05
8.18687e-05
8.96999e-05
9.68127e-05
0.00011701
0.000127071
0.000127882
0.000117154
9.1965e-05
6.74548e-05
3.09774e-05
0
0
2.1858e-05
4.29227e-05
6.2469e-05
7.99154e-05
9.48499e-05
0.000127095
0.000121206
7.19201e-05
0
0
1.06801e-05
2.12631e-05
3.16697e-05
4.18078e-05
5.1601e-05
6.09767e-05
6.98701e-05
7.82339e-05
8.60241e-05
9.32085e-05
0.000114771
0.000127289
0.000132765
0.000125337
0.000102104
7.64222e-05
3.54067e-05
0
0
2.07622e-05
4.08734e-05
5.97328e-05
7.68481e-05
9.18581e-05
0.000127789
0.000129636
8.09845e-05
0
0
1.02144e-05
2.03491e-05
3.03388e-05
4.01071e-05
4.95905e-05
5.87277e-05
6.74598e-05
7.57447e-05
8.35491e-05
9.08429e-05
0.000113779
0.000128585
0.000138354
0.000134138
0.000112626
8.55998e-05
3.99031e-05
0
0
2.00056e-05
3.94748e-05
5.79089e-05
7.48883e-05
9.00865e-05
0.000129693
0.000138955
9.03084e-05
0
0
9.93177e-06
1.97976e-05
2.95433e-05
3.91058e-05
4.84308e-05
5.74682e-05
6.6168e-05
7.44917e-05
8.24055e-05
8.98785e-05
0.000114195
0.000131406
0.000145526
0.000144155
0.000123785
9.50789e-05
4.44925e-05
0
0
1.98105e-05
3.91673e-05
5.76435e-05
7.48688e-05
9.05486e-05
0.000133835
0.000149854
9.99696e-05
0
0
1.00538e-05
2.00502e-05
2.99403e-05
3.96691e-05
4.9186e-05
5.84465e-05
6.74099e-05
7.60413e-05
8.42918e-05
9.21468e-05
0.000118224
0.000137398
0.000155283
0.000156054
0.000135851
0.000104938
4.92018e-05
0
0
2.05368e-05
4.06517e-05
5.99435e-05
7.80552e-05
9.46995e-05
0.000142134
0.00016294
0.000110036
0
0
1.06727e-05
2.12887e-05
3.17997e-05
4.21519e-05
5.22951e-05
6.21857e-05
7.17749e-05
8.10268e-05
8.99013e-05
9.83757e-05
0.000126977
0.000148204
0.000168666
0.000170518
0.000149115
0.000115216
5.40647e-05
0
0
2.23425e-05
4.4241e-05
6.52739e-05
8.50683e-05
0.000103309
0.000155773
0.000178959
0.000120497
0
0
1.18982e-05
2.37328e-05
3.54474e-05
4.6984e-05
5.8284e-05
6.93005e-05
7.99737e-05
9.02714e-05
0.000100159
0.0001096
0.000141356
0.000165049
0.000186584
0.000188236
0.000163931
0.000125864
5.91286e-05
0
0
2.07154e-05
4.10594e-05
6.0674e-05
7.92406e-05
9.64749e-05
0.000147785
0.000174937
0.00012238
0
0
9.09885e-06
1.81597e-05
2.71487e-05
3.60302e-05
4.47673e-05
5.3332e-05
6.16847e-05
6.98064e-05
7.76639e-05
8.52374e-05
0.000111518
0.000132544
0.00015483
0.000161844
0.0001484
0.000118093
5.71934e-05
0
0
1.60114e-05
3.17914e-05
4.71158e-05
6.1778e-05
7.55897e-05
0.000118875
0.000149553
0.000113389
0
0
7.09351e-06
1.41623e-05
2.11848e-05
2.81379e-05
3.4998e-05
4.17457e-05
4.83572e-05
5.48167e-05
6.11011e-05
6.71998e-05
8.88919e-05
0.000106873
0.000128258
0.000137806
0.000131655
0.000108202
5.3949e-05
0
0
1.25832e-05
2.50152e-05
3.71483e-05
4.88448e-05
5.99847e-05
9.61739e-05
0.000126849
0.000102869
0
0
5.61456e-06
1.12128e-05
1.67807e-05
2.23022e-05
2.77623e-05
3.31475e-05
3.84428e-05
4.36366e-05
4.87099e-05
5.3657e-05
7.14872e-05
8.67282e-05
0.000106224
0.000116575
0.000115153
9.73023e-05
4.98394e-05
0
0
1.00263e-05
1.99501e-05
2.96711e-05
3.9093e-05
4.81302e-05
7.82811e-05
0.000107034
9.17957e-05
0
0
4.49795e-06
8.98456e-06
1.34502e-05
1.78837e-05
2.22746e-05
2.66133e-05
3.08898e-05
3.50948e-05
3.92172e-05
4.32508e-05
5.79436e-05
7.07731e-05
8.8027e-05
9.81931e-05
9.96659e-05
8.6238e-05
4.52449e-05
0
0
8.07184e-06
1.60718e-05
2.3929e-05
3.15753e-05
3.89482e-05
6.4037e-05
9.00023e-05
8.08607e-05
0
0
3.63598e-06
7.26389e-06
1.08769e-05
1.4467e-05
1.80268e-05
2.15492e-05
2.5027e-05
2.84537e-05
3.18214e-05
3.51251e-05
4.72526e-05
5.80118e-05
7.30023e-05
8.24674e-05
8.55755e-05
7.5557e-05
4.04751e-05
0
0
6.54937e-06
1.30468e-05
1.9441e-05
2.56825e-05
3.17246e-05
5.25888e-05
7.5496e-05
7.04959e-05
0
0
2.9591e-06
5.91229e-06
8.8546e-06
1.17801e-05
1.46835e-05
1.75595e-05
2.04028e-05
2.32083e-05
2.59709e-05
2.86861e-05
3.87122e-05
4.77127e-05
6.05812e-05
6.91111e-05
7.3022e-05
6.55876e-05
3.57636e-05
0
0
5.3447e-06
1.0651e-05
1.58809e-05
2.09975e-05
2.59656e-05
4.3312e-05
6.321e-05
6.09461e-05
0
0
2.42011e-06
4.83582e-06
7.2434e-06
9.63842e-06
1.20169e-05
1.43748e-05
1.67082e-05
1.90133e-05
2.12863e-05
2.35235e-05
3.18221e-05
3.93388e-05
5.0295e-05
5.78197e-05
6.20012e-05
5.65026e-05
3.12735e-05
0
0
4.37983e-06
8.73072e-06
1.30239e-05
1.72315e-05
2.13262e-05
3.57447e-05
5.28434e-05
5.23265e-05
0
0
1.98624e-06
3.9691e-06
5.94579e-06
7.91293e-06
9.86752e-06
1.18065e-05
1.37268e-05
1.56256e-05
1.74998e-05
1.93468e-05
2.62195e-05
3.24897e-05
4.1764e-05
4.83051e-05
5.24285e-05
4.8369e-05
2.71087e-05
0
0
3.59943e-06
7.17657e-06
1.07093e-05
1.41762e-05
1.75567e-05
2.95381e-05
4.41205e-05
4.46644e-05
0
0
1.63411e-06
3.26562e-06
4.89242e-06
6.51173e-06
8.12134e-06
9.71867e-06
1.13014e-05
1.28672e-05
1.44142e-05
1.59396e-05
2.16372e-05
2.68569e-05
3.46814e-05
4.03093e-05
4.41798e-05
4.11819e-05
2.33277e-05
0
0
2.9642e-06
5.91137e-06
8.82426e-06
1.1686e-05
1.44789e-05
2.44334e-05
3.68021e-05
3.79221e-05
0
0
1.34624e-06
2.69051e-06
4.03087e-06
5.36567e-06
6.69275e-06
8.01071e-06
9.31725e-06
1.06112e-05
1.18903e-05
1.31535e-05
1.78692e-05
2.22258e-05
2.87736e-05
3.36167e-05
3.71265e-05
3.48746e-05
1.99601e-05
0
0
1.90117e-06
3.79228e-06
5.66323e-06
7.50412e-06
9.3053e-06
1.57729e-05
2.40588e-05
2.56032e-05
0
0
6.68131e-07
1.33544e-06
2.00106e-06
2.66431e-06
3.3241e-06
3.97999e-06
4.63072e-06
5.27602e-06
5.91444e-06
6.54597e-06
8.91561e-06
1.11286e-05
1.45203e-05
1.71405e-05
1.92744e-05
1.85879e-05
1.07993e-05
0
0
9.4938e-07
1.89417e-06
2.82984e-06
3.75193e-06
4.65612e-06
7.92562e-06
1.22335e-05
1.34135e-05
0
0
3.35596e-07
6.70784e-07
1.0052e-06
1.33848e-06
1.67015e-06
1.99994e-06
2.32733e-06
2.6521e-06
2.97362e-06
3.29181e-06
4.48884e-06
5.60954e-06
7.34663e-06
8.70069e-06
9.91939e-06
9.66522e-06
5.66525e-06
0
0
4.79965e-07
9.57727e-07
1.43109e-06
1.8979e-06
2.35608e-06
4.01934e-06
6.24921e-06
6.95769e-06
0
0
1.71512e-07
3.42831e-07
5.13774e-07
6.8416e-07
8.5377e-07
1.02246e-06
1.18999e-06
1.35625e-06
1.52091e-06
1.68396e-06
2.29851e-06
2.87598e-06
3.77003e-06
4.47507e-06
5.12681e-06
5.02507e-06
2.96084e-06
0
0
2.44448e-07
4.8781e-07
7.29e-07
9.66948e-07
1.20063e-06
2.04997e-06
3.19941e-06
3.59061e-06
0
0
8.2719e-08
1.65338e-07
2.47785e-07
3.29951e-07
4.11761e-07
4.93109e-07
5.73923e-07
6.54095e-07
7.33518e-07
8.12125e-07
1.10961e-06
1.38828e-06
1.82496e-06
2.1677e-06
2.49946e-06
2.44632e-06
1.45389e-06
0
0
9.10915e-08
1.81783e-07
2.71686e-07
3.60421e-07
4.47665e-07
7.64411e-07
1.19649e-06
1.35932e-06
0
0
0
0
0
0
0
0
0
0
0
0
0
0
0
0
0
0
0
0
SCALARS Displacement_Z double 1
LOOKUP_TABLE default
0.00171786
0.00171537
0.00170784
0.0016954
0.00167808
0.00165593
0.00162902
0.00159747
0.00156041
0.00151754
0.00146348
0.00128906
0.00114439
0.000927532
0.000757733
0.00054067
0.000399129
0.000259966
0.000217923
0.00172456
0.00171431
0.00168379
0.00163368
0.00156341
0.00146922
0.0011469
0.000758031
0.000398852
0.000217439
0.00172676
0.00172412
0.00171629
0.00170329
0.0016852
0.00166206
0.00163394
0.00160095
0.00156307
0.00151958
0.00147275
0.00129896
0.00114904
0.000929591
0.000758384
0.000540386
0.000398654
0.000259265
0.000217041
0.00172518
0.00171457
0.00168303
0.00163125
0.00156005
0.00147363
0.00115046
0.000758653
0.000398518
0.000216748
0.00172035
0.00171767
0.00170966
0.0016964
0.00167795
0.00165441
0.00162601
0.00159301
0.00155578
0.00151502
0.0014721
0.00130316
0.00115126
0.000930939
0.000758975
0.000540471
0.000398459
0.000258872
0.00021654
0.00171263
0.00170197
0.00167034
0.00161883
0.00154988
0.00146881
0.00115135
0.000759191
0.000398448
0.000216423
0.00170197
0.00169932
0.00169143
0.00167835
0.00166021
0.00163719
0.00160959
0.00157778
0.00154236
0.00150393
0.00146335
0.00130081
0.00115076
0.000931361
0.000759464
0.000540908
0.000398511
0.000258796
0.000216392
0.00168817
0.00167786
0.00164734
0.00159799
0.00153276
0.00145621
0.0011494
0.000759617
0.000398628
0.000216456
0.00167054
0.00166805
0.00166056
0.00164818
0.00163101
0.00160932
0.00158337
0.00155358
0.00152048
0.00148469
0.00144698
0.0012925
0.00114753
0.000931038
0.000759829
0.000541694
0.000398817
0.000259024
0.000216606
0.00163338
0.00162405
0.0015965
0.00155229
0.00149399
0.00142639
0.00114182
0.000759584
0.000399073
0.000216932
0.00159736
0.00159518
0.00158868
0.00157794
0.00156311
0.00154441
0.00152212
0.0014966
0.00146832
0.0014377
0.00140552
0.00126879
0.00113546
0.000927857
0.000759205
0.000542886
0.000399343
0.000259681
0.000217343
0.00156269
0.00155464
0.00153095
0.001493
0.00144321
0.00138492
0.00112868
0.000758708
0.000399594
0.000217787
0.0015295
0.00152763
0.00152204
0.00151282
0.0015001
0.00148407
0.00146496
0.00144311
0.00141883
0.00139245
0.00136444
0.00124326
0.00112133
0.000923069
0.000758022
0.000543757
0.000399861
0.000260592
0.000218314
0.0014978
0.0014909
0.00147057
0.00143801
0.00139513
0.00134438
0.00111358
0.000757156
0.000400126
0.000218896
0.0014676
0.001466
0.0014612
0.00145327
0.00144234
0.00142855
0.0014121
0.00139323
0.00137218
0.00134921
0.00132463
0.00121686
0.00110536
0.000916741
0.000756058
0.000544225
0.000400408
0.00026173
0.000219559
0.00143882
0.00143288
0.00141535
0.00138721
0.00134993
0.00130537
0.00109684
0.000754746
0.000400688
0.000220284
0.00141142
0.00141003
0.00140588
0.00139902
0.00138955
0.00137759
0.00136329
0.00134682
0.0013284
0.0013082
0.00128648
0.00119012
0.00108793
0.000908955
0.000753176
0.000544238
0.000400984
0.000263086
0.000221089
0.00138526
0.0013801
0.00136485
0.00134027
0.00130753
0.00126807
0.0010788
0.000751376
0.000401278
0.000221958
0.00136028
0.00135907
0.00135545
0.00134945
0.00134116
0.00133067
0.0013181
0.00130359
0.0012873
0.00126938
0.00125003
0.00116332
0.00106935
0.000899799
0.000749305
0.000543761
0.000401589
0.000264658
0.000222909
0.00133635
0.00133181
0.0013184
0.0012967
0.00126765
0.0012324
0.00105973
0.000747
0.000401899
0.000223924
0.00131338
0.00131231
0.0013091
0.00130381
0.00129647
0.00128717
0.001276
0.00126308
0.00124853
0.00123248
0.00121509
0.00113656
0.00104982
0.000889343
0.00074442
0.000542779
0.000402226
0.000266447
0.000225021
0.00129123
0.0012872
0.00127527
0.00125591
0.00122987
0.00119811
0.00103977
0.000741607
0.000402555
0.000226184
0.00126982
0.00126886
0.001266
0.00126127
0.0012547
0.00124637
0.00123635
0.00122473
0.00121162
0.00119712
0.00118135
0.00110974
0.00102943
0.000877621
0.000738522
0.000541298
0.000402905
0.00026846
0.00022743
0.00124902
0.0012454
0.00123467
0.00121723
0.00119368
0.00116481
0.0010189
0.000735208
0.000403261
0.000228743
0.00122879
0.00122794
0.00122535
0.00122108
0.00121514
0.0012076
0.00119852
0.00118797
0.00117604
0.00116283
0.00114845
0.00108268
0.00100805
0.000864626
0.000731643
0.00053935
0.000403641
0.000270705
0.000230139
0.00120905
0.00120577
0.00119602
0.00118014
0.00115865
0.0011322
0.00099697
0.000727862
0.000404033
0.000231605
0.00118956
0.00118877
0.00118641
0.00118251
0.00117709
0.0011702
0.0011619
0.00115224
0.0011413
0.00112917
0.00111594
0.00105529
0.000985567
0.000850336
0.000723852
0.000536996
0.000404457
0.000273193
0.000233156
0.00117005
0.00116705
0.00115813
0.00114358
0.00112384
0.0010995
0.000973936
0.000719654
0.000404901
0.00023478
0.00115029
0.00114957
0.00114742
0.00114385
0.00113889
0.00113258
0.00112497
0.00111611
0.00110607
0.00109492
0.0010827
0.00102683
0.000961917
0.000834763
0.000715272
0.000534328
0.000405385
0.000275937
0.00023649
0.00113
0.00112726
0.00111912
0.00110583
0.00108777
0.00106544
0.00094957
0.000710708
0.000405899
0.000238285
0.00110886
0.00110822
0.00110627
0.00110304
0.00109854
0.00109281
0.0010859
0.00107785
0.00106871
0.00105855
0.00104743
0.000996317
0.000936751
0.000817929
0.000706012
0.000531487
0.000406465
0.000278944
0.000240166
0.00102356
0.00102144
0.00101513
0.00100477
0.000990641
0.000973039
0.000880218
0.000679125
0.000402018
0.000242493
0.000948506
0.000948052
0.000946745
0.000944551
0.000941522
0.000937634
0.000932946
0.000927449
0.000921201
0.000914226
0.000906562
0.000870873
0.000827867
0.00074025
0.000652089
0.000507091
0.000396991
0.000280879
0.000244611
0.000881932
0.000880468
0.000876108
0.00086894
0.000859108
0.00084679
0.000779979
0.000626118
0.000391634
0.000246438
0.000822599
0.000822288
0.000821367
0.000819832
0.000817698
0.000814966
0.000811658
0.000807777
0.000803352
0.00079841
0.00079297
0.000767234
0.000735739
0.000669964
0.000600539
0.000480999
0.000385755
0.000281251
0.000247973
0.000769395
0.000768353
0.000765242
0.000760114
0.000753055
0.000744158
0.000695019
0.000576151
0.000379596
0.000249171
0.000721473
0.000721247
0.000720582
0.000719469
0.000717923
0.000715941
0.000713538
0.000710712
0.000707483
0.000703867
0.000699869
0.000680903
0.00065739
0.000607249
0.000552444
0.00045437
0.000373008
0.000280031
0.00025001
0.000678076
0.000677311
0.000675026
0.000671251
0.000666041
0.000659457
0.000622592
0.000529919
0.00036622
0.000250497
0.000638631
0.000638463
0.000637969
0.000637143
0.000635993
0.000634518
0.000632729
0.000630623
0.000628213
0.000625507
0.000622512
0.000608243
0.000590373
0.000551658
0.000508203
0.000427984
0.000359104
0.000277261
0.000250582
0.000602616
0.000602042
0.000600326
0.000597488
0.000593562
0.000588588
0.000560456
0.000487599
0.000351866
0.000250317
0.000569626
0.0005695
0.000569125
0.000568499
0.000567627
0.000566509
0.00056515
0.00056355
0.000561717
0.000559655
0.00055737
0.000546452
0.000532671
0.000502452
0.000467831
0.000402322
0.000344388
0.000273033
0.000249633
0.000539288
0.00053885
0.000537538
0.000535366
0.000532356
0.000528538
0.000506768
0.00044907
0.000336854
0.000248612
0.000511306
0.000511208
0.00051092
0.000510438
0.000509766
0.000508904
0.000507856
0.000506622
0.000505207
0.000503613
0.000501845
0.000493375
0.000482621
0.000458818
0.000431112
0.000377649
0.000329155
0.000267472
0.000247174
0.000485406
0.000485066
0.000484049
0.000482363
0.000480026
0.000477055
0.000460018
0.000414043
0.000321449
0.000245421
0.000461366
0.000461291
0.000461066
0.00046069
0.000460166
0.000459494
0.000458676
0.000457712
0.000456606
0.00045536
0.000453976
0.000447333
0.00043886
0.000419973
0.000397714
0.000354083
0.000313634
0.000260712
0.000243267
0.000438983
0.000438717
0.000437919
0.000436597
0.000434762
0.000432427
0.000418974
0.000382155
0.000305848
0.000240824
0.000418087
0.000418027
0.00041785
0.000417554
0.000417141
0.000416611
0.000415967
0.000415207
0.000414335
0.000413351
0.000412259
0.000407003
0.000400277
0.000385202
0.000367261
0.000331642
0.000297994
0.000252891
0.000238008
0.000398519
0.000398309
0.000397678
0.000396632
0.000395179
0.000393328
0.00038263
0.000353028
0.00029019
0.000234934
0.00038015
0.000380104
0.000379963
0.000379728
0.000379401
0.000378981
0.000378468
0.000377865
0.000377172
0.000376389
0.000375518
0.000371336
0.000365961
0.00035387
0.000339381
0.000310286
0.000282347
0.000244142
0.000231518
0.000362858
0.000362689
0.000362187
0.000361355
0.000360198
0.000358722
0.000350169
0.000326289
0.000274563
0.000227875
0.000346537
0.000346498
0.000346386
0.000346197
0.000345937
0.0003456
0.000345192
0.000344709
0.000344157
0.000343533
0.000342842
0.000339479
0.000335186
0.000325428
0.000313706
0.000289947
0.000266761
0.000234587
0.000223927
0.000293471
0.000293372
0.000293072
0.000292574
0.00029188
0.000290993
0.000285841
0.000271263
0.000238775
0.000207877
0.000248687
0.000248668
0.000248618
0.000248533
0.000248416
0.000248263
0.00024808
0.000247862
0.000247613
0.000247331
0.000247019
0.000245489
0.000243538
0.000239052
0.000233593
0.000222317
0.000210851
0.000194305
0.000188797
0.000209549
0.000209504
0.000209367
0.00020914
0.000208824
0.000208419
0.000206059
0.000199285
0.000183732
0.000168263
0.000174398
0.00017439
0.000174367
0.000174329
0.000174275
0.000174206
0.000174123
0.000174024
0.000173911
0.000173783
0.000173642
0.000172946
0.000172055
0.000170006
0.000167511
0.000162223
0.000156768
0.000148712
0.000146032
0.000141981
0.000141961
0.0001419
0.0001418
0.000141659
0.000141479
0.00014043
0.000137387
0.000130288
0.00012305
0.000111485
0.000111481
0.000111472
0.000111455
0.000111433
0.000111404
0.000111368
0.000111326
0.000111278
0.000111225
0.000111165
0.000110867
0.000110486
0.00010962
0.000108555
0.000106277
0.000103914
0.000100351
9.91885e-05
8.23061e-05
8.22983e-05
8.2275e-05
8.22362e-05
8.21822e-05
8.21126e-05
8.17107e-05
8.05399e-05
7.77999e-05
7.49522e-05
5.41019e-05
5.41007e-05
5.40977e-05
5.40926e-05
5.40856e-05
5.40765e-05
5.40655e-05
5.40525e-05
5.40377e-05
5.40212e-05
5.40031e-05
5.39086e-05
5.37899e-05
5.35215e-05
5.31933e-05
5.24803e-05
5.17481e-05
5.05897e-05
5.02547e-05
2.66557e-05
2.66543e-05
2.665e-05
2.66427e-05
2.66325e-05
2.66191e-05
2.65452e-05
2.63192e-05
2.58459e-05
2.53205e-05
-0
-0
-0
-0
-0
-0
-0
-0
-0
-0
-0
-0
-0
-0
-0
-0
-0
-0
-0
SCALARS Stress_R double 1
LOOKUP_TABLE default
18.8618
18.6757
18.534
18.1217
17.7596
17.0964
16.6033
15.9638
14.7555
12.8084
8.00964
2.62925
0.253292
-0.610717
-1.14092
-1.01028
-0.844274
-0.686717
-0.653416
14.1771
13.9193
13.2192
11.9444
9.74113
6.56015
0.751506
-0.784856
-0.660354
-0.53698
10.2158
10.0873
10.0105
9.72716
9.46199
8.95555
8.46105
7.79727
6.45763
6.24589
5.65757
2.73462
0.853935
0.0543877
-0.425928
-0.478034
-0.476833
-0.437713
-0.425463
6.16603
6.01846
5.63838
4.9288
3.97826
4.08052
1.10852
-0.0881407
-0.309273
-0.32163