# vtk DataFile Version 2.0
./vtk
ASCII

DATASET UNSTRUCTURED_GRID
POINTS 889 double
0 0 0.0
0.5 0 0.0
1 0 0.0
1.5 0 0.0
2 0 0.0
2.5 0 0.0
3 0 0.0
3.5 0 0.0
4 0 0.0
4.5 0 0.0
5 0 0.0
6.9457 0 0.0
8.8914 0 0.0
12.3514 0 0.0
15.8114 0 0.0
21.9642 0 0.0
28.1171 0 0.0
39.0585 0 0.0
50 0 0.0
0 -0.5 0.0
1 -0.5 0.0
2 -0.5 0.0
3 -0.5 0.0
4 -0.5 0.0
5 -0.5 0.0
8.8914 -0.5 0.0
15.8114 -0.5 0.0
28.1171 -0.5 0.0
50 -0.5 0.0
0 -1 0.0
0.5 -1 0.0
1 -1 0.0
1.5 -1 0.0
2 -1 0.0
2.5 -1 0.0
3 -1 0.0
3.5 -1 0.0
4 -1 0.0
4.5 -1 0.0
5 -1 0.0
6.9457 -1 0.0
8.8914 -1 0.0
12.3514 -1 0.0
15.8114 -1 0.0
21.9642 -1 0.0
28.1171 -1 0.0
39.0585 -1 0.0
50 -1 0.0
0 -1.5 0.0
1 -1.5 0.0
2 -1.5 0.0
3 -1.5 0.0
4 -1.5 0.0
5 -1.5 0.0
8.8914 -1.5 0.0
15.8114 -1.5 0.0
28.1171 -1.5 0.0
50 -1.5 0.0
0 -2 0.0
0.5 -2 0.0
1 -2 0.0
1.5 -2 0.0
2 -2 0.0
2.5 -2 0.0
3 -2 0.0
3.5 -2 0.0
4 -2 0.0
4.5 -2 0.0
5 -2 0.0
6.9457 -2 0.0
8.8914 -2 0.0
12.3514 -2 0.0
15.8114 -2 0.0
21.9642 -2 0.0
28.1171 -2 0.0
39.0585 -2 0.0
50 -2 0.0
0 -2.5 0.0
1 -2.5 0.0
2 -2.5 0.0
3 -2.5 0.0
4 -2.5 0.0
5 -2.5 0.0
8.8914 -2.5 0.0
15.8114 -2.5 0.0
28.1171 -2.5 0.0
50 -2.5 0.0
0 -3 0.0
0.5 -3 0.0
1 -3 0.0
1.5 -3 0.0
2 -3 0.0
2.5 -3 0.0
3 -3 0.0
3.5 -3 0.0
4 -3 0.0
4.5 -3 0.0
5 -3 0.0
6.9457 -3 0.0
8.8914 -3 0.0
12.3514 -3 0.0
15.8114 -3 0.0
21.9642 -3 0.0
28.1171 -3 0.0
39.0585 -3 0.0
50 -3 0.0
0 -3.5 0.0
1 -3.5 0.0
2 -3.5 0.0
3 -3.5 0.0
4 -3.5 0.0
5 -3.5 0.0
8.8914 -3.5 0.0
15.8114 -3.5 0.0
28.1171 -3.5 0.0
50 -3.5 0.0
0 -4 0.0
0.5 -4 0.0
1 -4 0.0
1.5 -4 0.0
2 -4 0.0
2.5 -4 0.0
3 -4 0.0
3.5 -4 0.0
4 -4 0.0
4.5 -4 0.0
5 -4 0.0
6.9457 -4 0.0
8.8914 -4 0.0
12.3514 -4 0.0
15.8114 -4 0.0
21.9642 -4 0.0
28.1171 -4 0.0
39.0585 -4 0.0
50 -4 0.0
0 -4.5 0.0
1 -4.5 0.0
2 -4.5 0.0
3 -4.5 0.0
4 -4.5 0.0
5 -4.5 0.0
8.8914 -4.5 0.0
15.8114 -4.5 0.0
28.1171 -4.5 0.0
50 -4.5 0.0
0 -5 0.0
0.5 -5 0.0
1 -5 0.0
1.5 -5 0.0
2 -5 0.0
2.5 -5 0.0
3 -5 0.0
3.5 -5 0.0
4 -5 0.0
4.5 -5 0.0
5 -5 0.0
6.9457 -5 0.0
8.8914 -5 0.0
12.3514 -5 0.0
15.8114 -5 0.0
21.9642 -5 0.0
28.1171 -5 0.0
39.0585 -5 0.0
50 -5 0.0
0 -5.5 0.0
1 -5.5 0.0
2 -5.5 0.0
3 -5.5 0.0
4 -5.5 0.0
5 -5.5 0.0
8.8914 -5.5 0.0
15.8114 -5.5 0.0
28.1171 -5.5 0.0
50 -5.5 0.0
0 -6 0.0
0.5 -6 0.0
1 -6 0.0
1.5 -6 0.0
2 -6 0.0
2.5 -6 0.0
3 -6 0.0
3.5 -6 0.0
4 -6 0.0
4.5 -6 0.0
5 -6 0.0
6.9457 -6 0.0
8.8914 -6 0.0
12.3514 -6 0.0
15.8114 -6 0.0
21.9642 -6 0.0
28.1171 -6 0.0
39.0585 -6 0.0
50 -6 0.0
0 -6.5 0.0
1 -6.5 0.0
2 -6.5 0.0
3 -6.5 0.0
4 -6.5 0.0
5 -6.5 0.0
8.8914 -6.5 0.0
15.8114 -6.5 0.0
28.1171 -6.5 0.0
50 -6.5 0.0
0 -7 0.0
0.5 -7 0.0
1 -7 0.0
1.5 -7 0.0
2 -7 0.0
2.5 -7 0.0
3 -7 0.0
3.5 -7 0.0
4 -7 0.0
4.5 -7 0.0
5 -7 0.0
6.9457 -7 0.0
8.8914 -7 0.0
12.3514 -7 0.0
15.8114 -7 0.0
21.9642 -7 0.0
28.1171 -7 0.0
39.0585 -7 0.0
50 -7 0.0
0 -7.5 0.0
1 -7.5 0.0
2 -7.5 0.0
3 -7.5 0.0
4 -7.5 0.0
5 -7.5 0.0
8.8914 -7.5 0.0
15.8114 -7.5 0.0
28.1171 -7.5 0.0
50 -7.5 0.0
0 -8 0.0
0.5 -8 0.0
1 -8 0.0
1.5 -8 0.0
2 -8 0.0
2.5 -8 0.0
3 -8 0.0
3.5 -8 0.0
4 -8 0.0
4.5 -8 0.0
5 -8 0.0
6.9457 -8 0.0
8.8914 -8 0.0
12.3514 -8 0.0
15.8114 -8 0.0
21.9642 -8 0.0
28.1171 -8 0.0
39.0585 -8 0.0
50 -8 0.0
0 -8.5 0.0
1 -8.5 0.0
2 -8.5 0.0
3 -8.5 0.0
4 -8.5 0.0
5 -8.5 0.0
8.8914 -8.5 0.0
15.8114 -8.5 0.0
28.1171 -8.5 0.0
50 -8.5 0.0
0 -9 0.0
0.5 -9 0.0
1 -9 0.0
1.5 -9 0.0
2 -9 0.0
2.5 -9 0.0
3 -9 0.0
3.5 -9 0.0
4 -9 0.0
4.5 -9 0.0
5 -9 0.0
6.9457 -9 0.0
8.8914 -9 0.0
12.3514 -9 0.0
15.8114 -9 0.0
21.9642 -9 0.0
28.1171 -9 0.0
39.0585 -9 0.0
50 -9 0.0
0 -9.5 0.0
1 -9.5 0.0
2 -9.5 0.0
3 -9.5 0.0
4 -9.5 0.0
5 -9.5 0.0
8.8914 -9.5 0.0
15.8114 -9.5 0.0
28.1171 -9.5 0.0
50 -9.5 0.0
0 -10 0.0
0.5 -10 0.0
1 -10 0.0
1.5 -10 0.0
2 -10 0.0
2.5 -10 0.0
3 -10 0.0
3.5 -10 0.0
4 -10 0.0
4.5 -10 0.0
5 -10 0.0
6.9457 -10 0.0
8.8914 -10 0.0
12.3514 -10 0.0
15.8114 -10 0.0
21.9642 -10 0.0
28.1171 -10 0.0
39.0585 -10 0.0
50 -10 0.0
0 -10.5 0.0
1 -10.5 0.0
2 -10.5 0.0
3 -10.5 0.0
4 -10.5 0.0
5 -10.5 0.0
8.8914 -10.5 0.0
15.8114 -10.5 0.0
28.1171 -10.5 0.0
50 -10.5 0.0
0 -11 0.0
0.5 -11 0.0
1 -11 0.0
1.5 -11 0.0
2 -11 0.0
2.5 -11 0.0
3 -11 0.0
3.5 -11 0.0
4 -11 0.0
4.5 -11 0.0
5 -11 0.0
6.9457 -11 0.0
8.8914 -11 0.0
12.3514 -11 0.0
15.8114 -11 0.0
21.9642 -11 0.0
28.1171 -11 0.0
39.0585 -11 0.0
50 -11 0.0
0 -11.5 0.0
1 -11.5 0.0
2 -11.5 0.0
3 -11.5 0.0
4 -11.5 0.0
5 -11.5 0.0
8.8914 -11.5 0.0
15.8114 -11.5 0.0
28.1171 -11.5 0.0
50 -11.5 0.0
0 -12 0.0
0.5 -12 0.0
1 -12 0.0
1.5 -12 0.0
2 -12 0.0
2.5 -12 0.0
3 -12 0.0
3.5 -12 0.0
4 -12 0.0
4.5 -12 0.0
5 -12 0.0
6.9457 -12 0.0
8.8914 -12 0.0
12.3514 -12 0.0
15.8114 -12 0.0
21.9642 -12 0.0
28.1171 -12 0.0
39.0585 -12 0.0
50 -12 0.0
0 -12.5 0.0
1 -12.5 0.0
2 -12.5 0.0
3 -12.5 0.0
4 -12.5 0.0
5 -12.5 0.0
8.8914 -12.5 0.0
15.8114 -12.5 0.0
28.1171 -12.5 0.0
50 -12.5 0.0
0 -13 0.0
0.5 -13 0.0
1 -13 0.0
1.5 -13 0.0
2 -13 0.0
2.5 -13 0.0
3 -13 0.0
3.5 -13 0.0
4 -13 0.0
4.5 -13 0.0
5 -13 0.0
6.9457 -13 0.0
8.8914 -13 0.0
12.3514 -13 0.0
15.8114 -13 0.0
21.9642 -13 0.0
28.1171 -13 0.0
39.0585 -13 0.0
50 -13 0.0
0 -13.5 0.0
1 -13.5 0.0
2 -13.5 0.0
3 -13.5 0.0
4 -13.5 0.0
5 -13.5 0.0
8.8914 -13.5 0.0
15.8114 -13.5 0.0
28.1171 -13.5 0.0
50 -13.5 0.0
0 -14 0.0
0.5 -14 0.0
1 -14 0.0
1.5 -14 0.0
2 -14 0.0
2.5 -14 0.0
3 -14 0.0
3.5 -14 0.0
4 -14 0.0
4.5 -14 0.0
5 -14 0.0
6.9457 -14 0.0
8.8914 -14 0.0
12.3514 -14 0.0
15.8114 -14 0.0
21.9642 -14 0.0
28.1171 -14 0.0
39.0585 -14 0.0
50 -14 0.0
0 -14.5 0.0
1 -14.5 0.0
2 -14.5 0.0
3 -14.5 0.0
4 -14.5 0.0
5 -14.5 0.0
8.8914 -14.5 0.0
15.8114 -14.5 0.0
28.1171 -14.5 0.0
50 -14.5 0.0
0 -15 0.0
0.5 -15 0.0
1 -15 0.0
1.5 -15 0.0
2 -15 0.0
2.5 -15 0.0
3 -15 0.0
3.5 -15 0.0
4 -15 0.0
4.5 -15 0.0
5 -15 0.0
6.9457 -15 0.0
8.8914 -15 0.0
12.3514 -15 0.0
15.8114 -15 0.0
21.9642 -15 0.0
28.1171 -15 0.0
39.0585 -15 0.0
50 -15 0.0
0 -16.5 0.0
1 -16.5 0.0
2 -16.5 0.0
3 -16.5 0.0
4 -16.5 0.0
5 -16.5 0.0
8.8914 -16.5 0.0
15.8114 -16.5 0.0
28.1171 -16.5 0.0
50 -16.5 0.0
0 -18 0.0
0.5 -18 0.0
1 -18 0.0
1.5 -18 0.0
2 -18 0.0
2.5 -18 0.0
3 -18 0.0
3.5 -18 0.0
4 -18 0.0
4.5 -18 0.0
5 -18 0.0
6.9457 -18 0.0
8.8914 -18 0.0
12.3514 -18 0.0
15.8114 -18 0.0
21.9642 -18 0.0
28.1171 -18 0.0
39.0585 -18 0.0
50 -18 0.0
0 -19.5 0.0
1 -19.5 0.0
2 -19.5 0.0
3 -19.5 0.0
4 -19.5 0.0
5 -19.5 0.0
8.8914 -19.5 0.0
15.8114 -19.5 0.0
28.1171 -19.5 0.0
50 -19.5 0.0
0 -21 0.0
0.5 -21 0.0
1 -21 0.0
1.5 -21 0.0
2 -21 0.0
2.5 -21 0.0
3 -21 0.0
3.5 -21 0.0
4 -21 0.0
4.5 -21 0.0
5 -21 0.0
6.9457 -21 0.0
8.8914 -21 0.0
12.3514 -21 0.0
15.8114 -21 0.0
21.9642 -21 0.0
28.1171 -21 0.0
39.0585 -21 0.0
50 -21 0.0
0 -22.5 0.0
1 -22.5 0.0
2 -22.5 0.0
3 -22.5 0.0
4 -22.5 0.0
5 -22.5 0.0
8.8914 -22.5 0.0
15.8114 -22.5 0.0
28.1171 -22.5 0.0
50 -22.5 0.0
0 -24 0.0
0.5 -24 0.0
1 -24 0.0
1.5 -24 0.0
2 -24 0.0
2.5 -24 0.0
3 -24 0.0
3.5 -24 0.0
4 -24 0.0
4.5 -24 0.0
5 -24 0.0
6.9457 -24 0.0
8.8914 -24 0.0
12.3514 -24 0.0
15.8114 -24 0.0
21.9642 -24 0.0
28.1171 -24 0.0
39.0585 -24 0.0
50 -24 0.0
0 -25.5 0.0
1 -25.5 0.0
2 -25.5 0.0
3 -25.5 0.0
4 -25.5 0.0
5 -25.5 0.0
8.8914 -25.5 0.0
15.8114 -25.5 0.0
28.1171 -25.5 0.0
50 -25.5 0.0
0 -27 0.0
0.5 -27 0.0
1 -27 0.0
1.5 -27 0.0
2 -27 0.0
2.5 -27 0.0
3 -27 0.0
3.5 -27 0.0
4 -27 0.0
4.5 -27 0.0
5 -27 0.0
6.9457 -27 0.0
8.8914 -27 0.0
12.3514 -27 0.0
15.8114 -27 0.0
21.9642 -27 0.0
28.1171 -27 0.0
39.0585 -27 0.0
50 -27 0.0
0 -28.5 0.0
1 -28.5 0.0
2 -28.5 0.0
3 -28.5 0.0
4 -28.5 0.0
5 -28.5 0.0
8.8914 -28.5 0.0
15.8114 -28.5 0.0
28.1171 -28.5 0.0
50 -28.5 0.0
0 -30 0.0
0.5 -30 0.0
1 -30 0.0
1.5 -30 0.0
2 -30 0.0
2.5 -30 0.0
3 -30 0.0
3.5 -30 0.0
4 -30 0.0
4.5 -30 0.0
5 -30 0.0
6.9457 -30 0.0
8.8914 -30 0.0
12.3514 -30 0.0
15.8114 -30 0.0
21.9642 -30 0.0
28.1171 -30 0.0
39.0585 -30 0.0
50 -30 0.0
0 -31.5 0.0
1 -31.5 0.0
2 -31.5 0.0
3 -31.5 0.0
4 -31.5 0.0
5 -31.5 0.0
8.8914 -31.5 0.0
15.8114 -31.5 0.0
28.1171 -31.5 0.0
50 -31.5 0.0
0 -33 0.0
0.5 -33 0.0
1 -33 0.0
1.5 -33 0.0
2 -33 0.0
2.5 -33 0.0
3 -33 0.0
3.5 -33 0.0
4 -33 0.0
4.5 -33 0.0
5 -33 0.0
6.9457 -33 0.0
8.8914 -33 0.0
12.3514 -33 0.0
15.8114 -33 0.0
21.9642 -33 0.0
28.1171 -33 0.0
39.0585 -33 0.0
50 -33 0.0
0 -34.5 0.0
1 -34.5 0.0
2 -34.5 0.0
3 -34.5 0.0
4 -34.5 0.0
5 -34.5 0.0
8.8914 -34.5 0.0
15.8114 -34.5 0.0
28.1171 -34.5 0.0
50 -34.5 0.0
0 -36 0.0
0.5 -36 0.0
1 -36 0.0
1.5 -36 0.0
2 -36 0.0
2.5 -36 0.0
3 -36 0.0
3.5 -36 0.0
4 -36 0.0
4.5 -36 0.0
5 -36 0.0
6.9457 -36 0.0
8.8914 -36 0.0
12.3514 -36 0.0
15.8114 -36 0.0
21.9642 -36 0.0
28.1171 -36 0.0
39.0585 -36 0.0
50 -36 0.0
0 -37.5 0.0
1 -37.5 0.0
2 -37.5 0.0
3 -37.5 0.0
4 -37.5 0.0
5 -37.5 0.0
8.8914 -37.5 0.0
15.8114 -37.5 0.0
28.1171 -37.5 0.0
50 -37.5 0.0
0 -39 0.0
0.5 -39 0.0
1 -39 0.0
1.5 -39 0.0
2 -39 0.0
2.5 -39 0.0
3 -39 0.0
3.5 -39 0.0
4 -39 0.0
4.5 -39 0.0
5 -39 0.0
6.9457 -39 0.0
8.8914 -39 0.0
12.3514 -39 0.0
15.8114 -39 0.0
21.9642 -39 0.0
28.1171 -39 0.0
39.0585 -39 0.0
50 -39 0.0
0 -40.5 0.0
1 -40.5 0.0
2 -40.5 0.0
3 -40.5 0.0
4 -40.5 0.0
5 -40.5 0.0
8.8914 -40.5 0.0
15.8114 -40.5 0.0
28.1171 -40.5 0.0
50 -40.5 0.0
0 -42 0.0
0.5 -42 0.0
1 -42 0.0
1.5 -42 0.0
2 -42 0.0
2.5 -42 0.0
3 -42 0.0
3.5 -42 0.0
4 -42 0.0
4.5 -42 0.0
5 -42 0.0
6.9457 -42 0.0
8.8914 -42 0.0
12.3514 -42 0.0
15.8114 -42 0.0
21.9642 -42 0.0
28.1171 -42 0.0
39.0585 -42 0.0
50 -42 0.0
0 -43.5 0.0
1 -43.5 0.0
2 -43.5 0.0
3 -43.5 0.0
4 -43.5 0.0
5 -43.5 0.0
8.8914 -43.5 0.0
15.8114 -43.5 0.0
28.1171 -43.5 0.0
50 -43.5 0.0
0 -45 0.0
0.5 -45 0.0
1 -45 0.0
1.5 -45 0.0
2 -45 0.0
2.5 -45 0.0
3 -45 0.0
3.5 -45 0.0
4 -45 0.0
4.5 -45 0.0
5 -45 0.0
6.9457 -45 0.0
8.8914 -45 0.0
12.3514 -45 0.0
15.8114 -45 0.0
21.9642 -45 0.0
28.1171 -45 0.0
39.0585 -45 0.0
50 -45 0.0
0 -50.5 0.0
1 -50.5 0.0
2 -50.5 0.0
3 -50.5 0.0
4 -50.5 0.0
5 -50.5 0.0
8.8914 -50.5 0.0
15.8114 -50.5 0.0
28.1171 -50.5 0.0
50 -50.5 0.0
0 -56 0.0
0.5 -56 0.0
1 -56 0.0
1.5 -56 0.0
2 -56 0.0
2.5 -56 0.0
3 -56 0.0
3.5 -56 0.0
4 -56 0.0
4.5 -56 0.0
5 -56 0.0
6.9457 -56 0.0
8.8914 -56 0.0
12.3514 -56 0.0
15.8114 -56 0.0
21.9642 -56 0.0
28.1171 -56 0.0
39.0585 -56 0.0
50 -56 0.0
0 -61.5 0.0
1 -61.5 0.0
2 -61.5 0.0
3 -61.5 0.0
4 -61.5 0.0
5 -61.5 0.0
8.8914 -61.5 0.0
15.8114 -61.5 0.0
28.1171 -61.5 0.0
[...]
POINT_DATA 889
SCALARS Displacement_R double 1
LOOKUP_TABLE default
0
-4.17865e-06
-8.31473e-06
-1.23686e-05
-1.63001e-05
-2.00818e-05
-2.36762e-05
-2.70804e-05
-3.02099e-05
-3.29593e-05
-3.53271e-05
-4.08328e-05
-4.30355e-05
-4.1893e-05
-3.798e-05
-2.8907e-05
-2.00792e-05
-9.514e-06
0
0
-5.85316e-06
-1.14529e-05
-1.65434e-05
-2.08293e-05
-2.42732e-05
-3.12966e-05
-2.79939e-05
-1.48589e-05
0
0
-1.81601e-06
-3.60677e-06
-5.353e-06
-7.02683e-06
-8.60573e-06
-1.00585e-05
-1.13798e-05
-1.25451e-05
-1.35476e-05
-1.46322e-05
-1.83207e-05
-1.99856e-05
-1.98634e-05
-1.81388e-05
-1.38078e-05
-9.64095e-06
-4.5461e-06
0
0
-1.51348e-06
-2.91431e-06
-4.09699e-06
-5.017e-06
-5.94881e-06
-9.09102e-06
-8.3842e-06
-4.39477e-06
0
0
2.4552e-07
4.9477e-07
7.47754e-07
1.01071e-06
1.28637e-06
1.56815e-06
1.84238e-06
2.0783e-06
2.23887e-06
2.31291e-06
2.01489e-06
1.63909e-06
1.45053e-06
1.33036e-06
1.11494e-06
8.50615e-07
3.81531e-07
0
0
2.48705e-06
4.90224e-06
7.15425e-06
9.09905e-06
1.05367e-05
1.23654e-05
1.10444e-05
6.09741e-06
0
0
2.28465e-06
4.5459e-06
6.7643e-06
8.91523e-06
1.09788e-05
1.29271e-05
1.47279e-05
1.63554e-05
1.77921e-05
1.903e-05
2.21447e-05
2.32482e-05
2.27714e-05
2.08029e-05
1.60439e-05
1.13465e-05
5.30961e-06
0
0
6.75383e-06
1.32252e-05
1.91264e-05
2.41845e-05
2.81536e-05
3.45397e-05
3.06713e-05
1.65704e-05
0
0
4.62461e-06
9.19814e-06
1.36779e-05
1.80108e-05
2.21439e-05
2.60303e-05
2.96134e-05
3.28769e-05
3.57803e-05
3.82954e-05
4.41583e-05
4.63149e-05
4.48059e-05
4.06667e-05
3.11603e-05
2.17993e-05
1.02786e-05
0.0116487
0
1.05968e-05
2.07923e-05
3.01848e-05
3.84029e-05
4.51134e-05
5.84912e-05
5.78356e-05
3.81096e-05
-0.0176823
0
5.90268e-06
1.17505e-05
1.75001e-05
2.30923e-05
2.84885e-05
3.36361e-05
3.84787e-05
4.29705e-05
4.71283e-05
5.09101e-05
6.2315e-05
6.90584e-05
7.38273e-05
7.3045e-05
6.49664e-05
5.27266e-05
2.84854e-05
0.0121829
0
1.26836e-05
2.49644e-05
3.64543e-05
4.68139e-05
5.58212e-05
7.81411e-05
8.64705e-05
6.57131e-05
-0.00799743
0
6.73902e-06
1.34248e-05
2.00153e-05
2.64583e-05
3.27118e-05
3.87288e-05
4.44708e-05
4.99172e-05
5.50353e-05
5.98327e-05
7.51831e-05
8.57288e-05
9.57647e-05
9.80401e-05
9.13565e-05
7.69623e-05
4.36095e-05
0.00392143
0
1.39873e-05
2.75997e-05
4.04824e-05
5.23459e-05
6.29948e-05
9.19471e-05
0.000107835
8.67187e-05
0
0
7.21798e-06
1.43878e-05
2.14702e-05
2.84177e-05
3.51934e-05
4.17581e-05
4.80821e-05
5.41371e-05
5.99021e-05
6.53642e-05
8.34555e-05
9.67902e-05
0.000110978
0.000115837
0.000110575
9.47125e-05
5.43413e-05
0
0
1.46357e-05
2.89347e-05
4.25838e-05
5.53258e-05
6.69733e-05
0.000100387
0.00012211
0.000101209
0
0
7.39185e-06
1.47408e-05
2.20124e-05
2.91651e-05
3.61651e-05
4.29793e-05
4.95791e-05
5.59398e-05
6.20401e-05
6.78656e-05
8.75695e-05
0.00010271
0.000119787
0.000126639
0.000122745
0.000105968
6.06253e-05
0
0
1.47087e-05
2.91212e-05
4.29622e-05
5.59999e-05
6.80576e-05
0.000103868
0.000129496
0.000109211
0
0
7.29075e-06
1.45441e-05
2.17301e-05
2.8812e-05
3.57605e-05
4.25455e-05
4.91416e-05
5.55257e-05
6.16785e-05
6.75835e-05
8.78463e-05
0.000103838
0.000122506
0.000130646
0.000127931
0.000110739
6.27716e-05
0
0
1.4251e-05
2.82448e-05
4.17402e-05
5.45306e-05
6.64522e-05
0.0001027
0.000130201
0.000110763
0
0
6.93199e-06
1.38317e-05
2.06732e-05
2.74247e-05
3.40607e-05
4.05546e-05
4.68836e-05
5.30267e-05
5.89665e-05
6.46871e-05
8.45145e-05
0.00010044
0.000119411
0.00012809
0.000126175
0.0001091
6.09854e-05
0.00190061
0
1.3288e-05
2.63553e-05
3.89937e-05
5.1022e-05
6.22927e-05
9.71123e-05
0.00012444
0.000105975
-0.00378867
0
6.32433e-06
1.26213e-05
1.88687e-05
2.50396e-05
3.11121e-05
3.70633e-05
4.28734e-05
4.85238e-05
5.39987e-05
5.92837e-05
7.77275e-05
9.27101e-05
0.00011074
0.000119169
0.000117596
0.000101202
5.54952e-05
0.00921562
0
1.18316e-05
2.34781e-05
3.47637e-05
4.55343e-05
5.56618e-05
8.72677e-05
0.000112416
9.49698e-05
-0.0142485
0
5.47136e-06
1.09202e-05
1.63283e-05
2.16732e-05
2.6937e-05
3.21001e-05
3.71461e-05
4.20595e-05
4.68262e-05
5.14345e-05
6.75867e-05
8.07862e-05
9.66591e-05
0.00010404
0.000102252
8.71338e-05
4.66037e-05
0.0181006
0
9.88598e-06
1.96231e-05
2.9069e-05
3.80974e-05
4.66022e-05
7.32709e-05
9.41944e-05
7.78888e-05
-0.0198617
0
4.37435e-06
8.73109e-06
1.30562e-05
1.73319e-05
2.15443e-05
2.5678e-05
2.97188e-05
3.36541e-05
3.74746e-05
4.1169e-05
5.41374e-05
6.47301e-05
7.72366e-05
8.274e-05
8.02229e-05
6.7103e-05
3.45937e-05
0.024974
0
7.45445e-06
1.47977e-05
2.19228e-05
2.87327e-05
3.51423e-05
5.51579e-05
6.9839e-05
5.49561e-05
-0.0243896
0
3.03609e-06
6.05993e-06
9.06121e-06
1.20276e-05
1.49486e-05
1.78135e-05
2.06122e-05
2.33352e-05
2.59756e-05
2.85236e-05
3.74005e-05
4.45683e-05
5.25216e-05
5.53243e-05
5.16286e-05
4.13452e-05
1.97474e-05
0.0317861
0
4.54885e-06
9.02384e-06
1.33521e-05
1.74663e-05
2.13042e-05
3.29199e-05
3.94113e-05
2.64443e-05
-0.0266534
0
1.46937e-06
2.93082e-06
4.37756e-06
5.80217e-06
7.19759e-06
8.55752e-06
9.87569e-06
1.11467e-05
1.23633e-05
1.35216e-05
1.73965e-05
2.02235e-05
2.25081e-05
2.18614e-05
1.65165e-05
1.01773e-05
2.37283e-06
0.0180948
0
2.78138e-06
5.51458e-06
8.15294e-06
1.06536e-05
1.29799e-05
1.99121e-05
2.29558e-05
1.25523e-05
0
0
1.31783e-06
2.63046e-06
3.93332e-06
5.22143e-06
6.48985e-06
7.73451e-06
8.9506e-06
1.01347e-05
1.12828e-05
1.23922e-05
1.62618e-05
1.93653e-05
2.26136e-05
2.33302e-05
2.01399e-05
1.42919e-05
5.36001e-06
0
0
2.48258e-06
4.93209e-06
7.31637e-06
9.60529e-06
1.17703e-05
1.86295e-05
2.33514e-05
1.55931e-05
0
0
1.16915e-06
2.33457e-06
3.49307e-06
4.64104e-06
5.77499e-06
6.89182e-06
7.98792e-06
9.06067e-06
1.0107e-05
1.11242e-05
1.47654e-05
1.78086e-05
2.14541e-05
2.2987e-05
2.12939e-05
1.64207e-05
7.18462e-06
0
0
2.19054e-06
4.35701e-06
6.47576e-06
8.52446e-06
1.04827e-05
1.69147e-05
2.23939e-05
1.69231e-05
0
0
1.02627e-06
2.04978e-06
3.06821e-06
4.07882e-06
5.07914e-06
6.06673e-06
7.03911e-06
7.9941e-06
8.92875e-06
9.8417e-06
1.31499e-05
1.59974e-05
1.96853e-05
2.16106e-05
2.10004e-05
1.70913e-05
8.1335e-06
0
0
1.9145e-06
3.81094e-06
5.67148e-06
7.47893e-06
9.21755e-06
1.507e-05
2.07148e-05
1.7057e-05
0
0
8.93219e-07
1.78434e-06
2.6716e-06
3.5529e-06
4.42637e-06
5.29011e-06
6.14232e-06
6.98117e-06
7.80476e-06
8.6116e-06
1.15617e-05
1.41527e-05
1.76743e-05
1.97406e-05
1.98607e-05
1.67982e-05
8.44233e-06
0
0
1.6606e-06
3.30736e-06
4.92658e-06
6.505e-06
8.0301e-06
1.32547e-05
1.87207e-05
1.64225e-05
0
0
7.72265e-07
1.54291e-06
2.31058e-06
3.07364e-06
3.83066e-06
4.58014e-06
5.32065e-06
6.05081e-06
6.76922e-06
7.47459e-06
1.00711e-05
1.23846e-05
1.56345e-05
1.76863e-05
1.82673e-05
1.59049e-05
8.30684e-06
0
0
1.4319e-06
2.85303e-06
4.25272e-06
5.62062e-06
6.94679e-06
1.15487e-05
1.66464e-05
1.53281e-05
0
0
6.64198e-07
1.32712e-06
1.98773e-06
2.64473e-06
3.29699e-06
3.94336e-06
4.58269e-06
5.21388e-06
5.83589e-06
6.44763e-06
8.71097e-06
1.07492e-05
1.36813e-05
1.56274e-05
1.64735e-05
1.46695e-05
7.8818e-06
0
0
1.22885e-06
2.44922e-06
3.65272e-06
4.83116e-06
5.97661e-06
9.99012e-06
1.46265e-05
1.39897e-05
0
0
5.68802e-07
1.1366e-06
1.70256e-06
2.26567e-06
2.82504e-06
3.37972e-06
3.92884e-06
4.47149e-06
5.0069e-06
5.53414e-06
7.49253e-06
9.27048e-06
1.18739e-05
1.36649e-05
1.4639e-05
1.32706e-05
7.28455e-06
0
0
1.05042e-06
2.09412e-06
3.12441e-06
4.13476e-06
5.11877e-06
8.59254e-06
1.27348e-05
1.25543e-05
0
0
4.85323e-07
9.69842e-07
1.4529e-06
1.93368e-06
2.41148e-06
2.88556e-06
3.35519e-06
3.81969e-06
4.27835e-06
4.73052e-06
6.41476e-06
7.95387e-06
1.02384e-05
1.18524e-05
1.28616e-05
1.18277e-05
6.60072e-06
0
0
8.94789e-07
1.78417e-06
2.66278e-06
3.5254e-06
4.36698e-06
7.35532e-06
1.10083e-05
1.11182e-05
0
0
4.12766e-07
8.2489e-07
1.23585e-06
1.64496e-06
2.05167e-06
2.45534e-06
2.85541e-06
3.25127e-06
3.64249e-06
4.02836e-06
5.47061e-06
6.79367e-06
8.78158e-06
1.02145e-05
1.11974e-05
1.04174e-05
5.89077e-06
0
0
7.59947e-07
1.51561e-06
2.26264e-06
2.99678e-06
3.7136e-06
6.27184e-06
9.46102e-06
9.73854e-06
0
0
3.49979e-07
6.99448e-07
1.04793e-06
1.39497e-06
1.74005e-06
2.08277e-06
2.42258e-06
2.75914e-06
3.09192e-06
3.42057e-06
4.64869e-06
5.7837e-06
7.49414e-06
8.75834e-06
9.67983e-06
9.0794e-06
5.19708e-06
0
0
5.15957e-07
1.02922e-06
1.53707e-06
2.03687e-06
2.526e-06
4.28373e-06
6.54092e-06
6.96289e-06
0
0
1.87853e-07
3.75473e-07
5.62625e-07
7.49104e-07
9.34628e-07
1.11904e-06
1.30203e-06
1.48347e-06
1.66302e-06
1.84061e-06
2.50736e-06
3.12957e-06
4.08554e-06
4.82195e-06
5.42773e-06
5.22576e-06
3.04528e-06
0
0
2.74447e-07
5.47575e-07
8.18079e-07
1.08468e-06
1.34612e-06
2.29187e-06
3.53909e-06
3.88049e-06
0
0
9.94259e-08
1.98731e-07
2.9781e-07
3.96548e-07
4.94817e-07
5.92526e-07
6.89527e-07
7.85753e-07
8.81026e-07
9.75309e-07
1.33003e-06
1.66212e-06
2.17722e-06
2.57857e-06
2.93923e-06
2.86141e-06
1.67995e-06
0
0
1.45058e-07
2.89451e-07
4.32516e-07
5.73601e-07
7.12075e-07
1.21478e-06
1.88844e-06
2.10155e-06
0
0
5.27262e-08
1.05392e-07
1.57943e-07
2.10322e-07
2.62462e-07
3.14319e-07
3.65818e-07
4.16923e-07
4.67544e-07
5.17661e-07
7.06566e-07
8.83973e-07
1.15907e-06
1.3756e-06
1.57582e-06
1.543e-06
9.10045e-07
0
0
7.62072e-08
1.52076e-07
2.27268e-07
3.01449e-07
3.743e-07
6.39123e-07
9.97241e-07
1.11846e-06
0
0
2.60973e-08
5.2163e-08
7.81744e-08
1.04097e-07
1.29907e-07
1.55571e-07
1.81067e-07
2.06359e-07
2.31417e-07
2.56216e-07
3.50028e-07
4.37884e-07
5.75633e-07
6.83596e-07
7.8803e-07
7.70465e-07
4.58265e-07
0
0
2.89928e-08
5.78577e-08
8.6471e-08
1.14711e-07
1.42473e-07
2.43264e-07
3.80594e-07
4.31955e-07
0
0
0
0
0
0
0
0
0
0
0
0
0
0
0
0
0
0
0
0
SCALARS Displacement_Z double 1
LOOKUP_TABLE default
0.000594415
0.000593769
0.00059182
0.000588599
0.000584118
0.000578409
0.000571501
0.00056344
0.000554141
0.000543599
0.000531144
0.000484012
0.000437268
0.000355689
0.000281306
0.000172633
9.35904e-05
9.80224e-06
-1.67811e-05
0.000597224
0.000594577
0.000586713
0.000573857
0.000556152
0.000533355
0.000438421
0.000281514
9.34858e-05
-1.69768e-05
0.000598826
0.000598148
0.000596134
0.000592793
0.000588151
0.000582234
0.000575075
0.000566719
0.000557196
0.000546446
0.000534801
0.000487278
0.000439249
0.000356759
0.000281679
0.000172562
9.34184e-05
9.53896e-06
-1.71148e-05
0.000599376
0.000596657
0.000588586
0.000575395
0.000557408
0.000535476
0.000439722
0.000281745
9.33728e-05
-1.71929e-05
0.000598965
0.000598278
0.00059623
0.000592835
0.000588121
0.000582119
0.000574884
0.000566481
0.000556997
0.000546555
0.000535395
0.000488302
0.000439837
0.000357068
0.000281762
0.000172528
9.33639e-05
9.46073e-06
-1.72136e-05
0.000597649
0.000594916
0.000586818
0.000573634
0.000555911
0.000534648
0.000439595
0.00028168
9.33763e-05
-1.71773e-05
0.000595389
0.000594706
0.000592677
0.000589313
0.000584647
0.00057872
0.000571602
0.00056337
0.000554136
0.000544025
0.000533168
0.000487023
0.000438986
0.000356577
0.00028155
0.00017252
9.34251e-05
9.56994e-06
-1.70835e-05
0.000592111
0.000589443
0.000581538
0.00056871
0.000551583
0.000531032
0.000438017
0.000281318
9.34961e-05
-1.69301e-05
0.000587643
0.000586995
0.000585038
0.000581807
0.000577317
0.000571633
0.000564807
0.000556927
0.000548097
0.000538443
0.000528127
0.000483444
0.000436707
0.000355325
0.000281044
0.000172551
9.36041e-05
9.86463e-06
-1.6719e-05
0.000571415
0.00056896
0.00056169
0.000549943
0.000534241
0.000515618
0.000428257
0.000276246
9.18972e-05
-1.62074e-05
0.00055399
0.000553412
0.000551686
0.000548832
0.000544878
0.000539873
0.000533876
0.00052696
0.00051923
0.000510757
0.00050178
0.000461493
0.000418615
0.000341869
0.000270832
0.000166657
9.01894e-05
1.00251e-05
-1.52303e-05
0.000535597
0.000533447
0.000527094
0.00051683
0.000503177
0.000486839
0.000407962
0.00026485
8.84435e-05
-1.39822e-05
0.000516437
0.000515938
0.000514438
0.000511961
0.000508529
0.000504186
0.000498979
0.000492991
0.000486266
0.000478889
0.00047098
0.000435137
0.000396378
0.000325112
0.000258356
0.000159649
8.66847e-05
1.10487e-05
-1.23646e-05
0.000496692
0.000494839
0.000489354
0.000480494
0.00046867
0.000454398
0.00038404
0.000251407
8.48792e-05
-1.05291e-05
0.000476526
0.0004761
0.000474811
0.000472684
0.000469734
0.000466002
0.000461525
0.000456355
0.000450542
0.000444142
0.000437232
0.000405666
0.000371039
0.000305798
0.000244055
0.000151722
8.30669e-05
1.27872e-05
-8.42224e-06
0.00045609
0.000454507
0.000449815
0.000442219
0.000432033
0.000419651
0.000357539
0.000236374
8.12324e-05
-6.19964e-06
0.000435529
0.000435167
0.000434069
0.000432256
0.00042974
0.000426553
0.000422721
0.000418288
0.000413289
0.00040777
0.000401783
0.000374253
0.000343639
0.000284692
0.000228404
0.000143092
7.93995e-05
1.50386e-05
-3.8201e-06
0.000414974
0.000413631
0.000409643
0.000403168
0.000394447
0.000383782
0.000329485
0.000220235
7.75542e-05
-1.41277e-06
0.000394559
0.000394254
0.000393325
0.00039179
0.000389656
0.000386951
0.000383692
0.000379913
0.000375643
0.000370915
0.000365769
0.000341983
0.000315181
0.000262565
0.000211906
0.000133979
7.57044e-05
1.75713e-05
1.04755e-06
0.000374407
0.000373275
0.000369906
0.000364421
0.000357002
0.000347884
0.000300859
0.000203507
7.38615e-05
3.47894e-06
0.000354644
0.000354389
0.000353607
0.000352315
0.000350517
0.000348235
0.00034548
0.00034228
0.000338656
0.000334634
0.000330245
0.000309876
0.000286624
0.000240176
0.000195083
0.000124648
7.20222e-05
2.01308e-05
5.85876e-06
0.000335389
0.00033444
0.000331611
0.000326993
0.000320724
0.000312981
0.000272597
0.000186721
7.02072e-05
8.15499e-06
0.000316765
0.000316552
0.000315898
0.000314817
0.00031331
0.000311396
0.000309081
0.000306388
0.00030333
0.00029993
0.00029621
0.0002789
0.000258883
0.000218262
0.000178471
0.000115381
6.83964e-05
2.24859e-05
1.03087e-05
0.000298889
0.000298098
0.000295733
0.000291864
0.000286592
0.000280053
0.000245595
0.000170416
6.66045e-05
1.23139e-05
0.000281885
0.000281708
0.000281162
0.00028026
0.000279002
0.000277401
0.000275462
0.000273203
0.000270632
0.000267769
0.000264626
0.000249985
0.000232833
0.00019753
0.000162598
0.000106435
6.48115e-05
2.44427e-05
1.40984e-05
0.000265868
0.000265208
0.000263234
0.000259994
0.000255565
0.000250046
0.000220704
0.0001551
6.30332e-05
1.5678e-05
0.000250964
0.000250817
0.000250359
0.000249605
0.00024855
0.000247208
0.000245579
0.000243678
0.000241509
0.000239091
0.000236428
0.00022402
0.000209306
0.000178659
0.000147975
9.80742e-05
6.12453e-05
2.58107e-05
1.69538e-05
0.00023729
0.000236734
0.00023507
0.000232333
0.000228584
0.00022389
0.000198746
0.0001413
5.94612e-05
1.79822e-05
0.00022497
0.000224844
0.000224455
0.000223812
0.000222914
0.000221769
0.000220379
0.000218755
0.000216901
0.000214829
0.00021255
0.00020189
0.000189123
0.000162333
0.000135135
9.05567e-05
5.76509e-05
2.63992e-05
1.86332e-05
0.000214122
0.00021364
0.0002122
0.000209832
0.000206583
0.000202509
0.000180543
0.000129552
5.58205e-05
1.89644e-05
0.000204867
0.000204752
0.00020441
0.00020384
0.000203048
0.000202036
0.00020081
0.000199375
0.000197741
0.000195912
0.0001939
0.000184481
0.0001731
0.000149217
0.000124612
8.41169e-05
5.39364e-05
2.60433e-05
1.8862e-05
0.000191582
0.000191191
0.000190021
0.000188096
0.000185449
0.000182129
0.000163898
0.000120416
5.38936e-05
1.88624e-05
0.000179272
0.000179186
0.000178932
0.000178509
0.00017792
0.000177165
0.00017625
0.000175176
0.00017395
0.000172573
0.000171052
0.000163879
0.000155003
0.00013615
0.000115954
8.10574e-05
5.37073e-05
2.68181e-05
1.90482e-05
0.000167847
0.000167551
0.000166668
0.000165211
0.0001632
0.000160663
0.000146507
0.000111452
5.34056e-05
1.93647e-05
0.00015724
0.000157175
0.000156981
0.000156657
0.000156207
0.00015563
0.000154929
0.000154106
0.000153164
0.000152106
0.000150937
0.000145366
0.000138407
0.000123427
0.000106868
7.72265e-05
5.29626e-05
2.76151e-05
1.97908e-05
0.00014739
0.000147162
0.000146481
0.000145356
0.0001438
0.00014183
0.000130723
0.000102379
5.24106e-05
2.02709e-05
0.000138241
0.00013819
0.000138039
0.000137788
0.000137438
0.000136989
0.000136444
0.000135802
0.000135067
0.000134241
0.000133326
0.000128955
0.000123457
0.00011147
9.7918e-05
7.29453e-05
5.17385e-05
2.83283e-05
2.07975e-05
0.000129739
0.000129561
0.000129029
0.000128148
0.000126928
0.000125381
0.000116589
9.36079e-05
5.09826e-05
2.13338e-05
0.00012184
0.0001218
0.000121682
0.000121484
0.000121209
0.000120856
0.000120426
0.000119921
0.000119342
0.000118689
0.000117966
0.000114505
0.000110125
0.000100482
8.93914e-05
6.84648e-05
5.01325e-05
2.88832e-05
2.18691e-05
0.000114496
0.000114355
0.000113934
0.000113238
0.000112272
0.000111045
0.000104032
8.53492e-05
4.92242e-05
2.23844e-05
0.000107666
0.000107635
0.000107541
0.000107384
0.000107166
0.000106885
0.000106544
0.000106143
0.000105682
0.000105162
0.000104586
0.000101824
9.83122e-05
9.05202e-05
8.14355e-05
6.39637e-05
4.8246e-05
2.92382e-05
2.28653e-05
0.000101311
0.000101199
0.000100864
0.000100309
9.95378e-05
9.8558e-05
9.29291e-05
7.77011e-05
4.72323e-05
2.33077e-05
9.53957e-05
9.53705e-05
9.52954e-05
9.51701e-05
9.49954e-05
9.47712e-05
9.44982e-05
9.41768e-05
9.38079e-05
9.33918e-05
9.29297e-05
9.07116e-05
8.78803e-05
8.15602e-05
7.41104e-05
5.95601e-05
4.61693e-05
2.93751e-05
2.36945e-05
8.98844e-05
8.97946e-05
8.95258e-05
8.90801e-05
8.84611e-05
8.76735e-05
8.31321e-05
7.0693e-05
4.50887e-05
2.40323e-05
8.47471e-05
8.47268e-05
8.46664e-05
8.45657e-05
8.44252e-05
8.42448e-05
8.40252e-05
8.37665e-05
8.34694e-05
8.31342e-05
8.27618e-05
8.09713e-05
7.86789e-05
7.3537e-05
6.74217e-05
5.53261e-05
4.39749e-05
2.92914e-05
2.43027e-05
7.99539e-05
7.98815e-05
7.96648e-05
7.93053e-05
7.88058e-05
7.81697e-05
7.44906e-05
6.43115e-05
4.28565e-05
2.45197e-05
7.54785e-05
7.54621e-05
7.54133e-05
7.5332e-05
7.52184e-05
7.50726e-05
7.48951e-05
7.46859e-05
7.44456e-05
7.41744e-05
7.38732e-05
7.24219e-05
7.05593e-05
6.63658e-05
6.13424e-05
5.13006e-05
4.17171e-05
2.89946e-05
2.46643e-05
7.12954e-05
7.12368e-05
7.10614e-05
7.07703e-05
7.03654e-05
6.98496e-05
6.68596e-05
5.85194e-05
4.0582e-05
2.47549e-05
6.7382e-05
6.73688e-05
6.73292e-05
6.72633e-05
6.71712e-05
6.70531e-05
6.6909e-05
6.67393e-05
6.65442e-05
6.6324e-05
6.60788e-05
6.48996e-05
6.33818e-05
5.99546e-05
5.58281e-05
4.74998e-05
3.94343e-05
2.84983e-05
2.47732e-05
6.37167e-05
6.36689e-05
6.35265e-05
6.32901e-05
6.29614e-05
6.25421e-05
6.01065e-05
5.32651e-05
3.82962e-05
2.47404e-05
6.028e-05
6.02687e-05
6.02367e-05
6.01828e-05
6.01081e-05
6.00117e-05
5.98948e-05
5.97565e-05
5.95981e-05
5.94192e-05
5.92208e-05
5.82567e-05
5.70224e-05
5.42122e-05
5.08218e-05
4.39264e-05
3.71516e-05
2.78188e-05
2.46383e-05
4.93317e-05
4.93025e-05
4.92141e-05
4.90674e-05
4.8863e-05
4.86018e-05
4.7082e-05
4.27687e-05
3.30914e-05
2.38765e-05
4.04757e-05
4.04702e-05
4.04551e-05
4.04294e-05
4.03942e-05
4.03484e-05
4.02932e-05
4.02275e-05
4.01526e-05
4.00677e-05
3.99738e-05
3.95137e-05
3.89255e-05
3.75729e-05
3.59247e-05
3.25134e-05
2.90407e-05
2.40523e-05
2.23549e-05
3.31262e-05
3.31123e-05
3.30704e-05
3.30009e-05
3.29041e-05
3.27801e-05
3.20569e-05
2.99784e-05
2.51934e-05
2.04374e-05
2.6874e-05
2.68714e-05
2.68643e-05
2.68524e-05
2.68358e-05
2.68144e-05
2.67884e-05
2.67577e-05
2.67225e-05
2.66828e-05
2.66387e-05
2.64225e-05
2.61453e-05
2.55082e-05
2.47303e-05
2.30865e-05
2.13894e-05
1.88936e-05
1.80515e-05
2.13998e-05
2.13935e-05
2.13744e-05
2.13427e-05
2.12985e-05
2.12418e-05
2.09118e-05
1.99544e-05
1.77201e-05
1.54465e-05
1.64846e-05
1.64835e-05
1.64805e-05
1.64753e-05
1.64681e-05
1.64588e-05
1.64476e-05
1.64343e-05
1.64191e-05
1.6402e-05
1.6383e-05
1.62887e-05
1.61678e-05
1.58923e-05
1.5554e-05
1.48314e-05
1.40815e-05
1.29567e-05
1.25854e-05
1.19621e-05
1.19596e-05
1.19521e-05
1.19397e-05
1.19224e-05
1.19002e-05
1.17715e-05
1.13967e-05
1.05198e-05
9.61128e-06
7.73504e-06
7.73466e-06
7.7337e-06
7.73203e-06
7.72979e-06
7.72683e-06
7.72331e-06
7.7191e-06
7.71432e-06
7.70899e-06
7.7031e-06
7.67271e-06
7.6344e-06
7.54781e-06
7.44186e-06
7.21245e-06
6.97678e-06
6.60599e-06
6.49744e-06
3.74268e-06
3.74224e-06
3.74082e-06
3.73846e-06
3.73515e-06
3.73079e-06
3.70674e-06
3.63345e-06
3.47954e-06
3.30964e-06
-0
-0
-0
-0
-0
-0
-0
-0
-0
-0
-0
-0
-0
-0
-0
-0
-0
-0
-0
SCALARS Stress_R double 1
LOOKUP_TABLE default
4.45215
4.41071
4.37828
4.28486