# vtk DataFile Version 2.0
./vtk
ASCII

DATASET UNSTRUCTURED_GRID
POINTS 889 double
0 0 0.0
0.5 0 0.0
1 0 0.0
1.5 0 0.0
2 0 0.0
2.5 0 0.0
3 0 0.0
3.5 0 0.0
4 0 0.0
4.5 0 0.0
5 0 0.0
6.9457 0 0.0
8.8914 0 0.0
12.3514 0 0.0
15.8114 0 0.0
21.9642 0 0.0
28.1171 0 0.0
39.0585 0 0.0
50 0 0.0
0 -0.5 0.0
1 -0.5 0.0
2 -0.5 0.0
3 -0.5 0.0
4 -0.5 0.0
5 -0.5 0.0
8.8914 -0.5 0.0
15.8114 -0.5 0.0
28.1171 -0.5 0.0
50 -0.5 0.0
0 -1 0.0
0.5 -1 0.0
1 -1 0.0
1.5 -1 0.0
2 -1 0.0
2.5 -1 0.0
3 -1 0.0
3.5 -1 0.0
4 -1 0.0
4.5 -1 0.0
5 -1 0.0
6.9457 -1 0.0
8.8914 -1 0.0
12.3514 -1 0.0
15.8114 -1 0.0
21.9642 -1 0.0
28.1171 -1 0.0
39.0585 -1 0.0
50 -1 0.0
0 -1.5 0.0
1 -1.5 0.0
2 -1.5 0.0
3 -1.5 0.0
4 -1.5 0.0
5 -1.5 0.0
8.8914 -1.5 0.0
15.8114 -1.5 0.0
28.1171 -1.5 0.0
50 -1.5 0.0
0 -2 0.0
0.5 -2 0.0
1 -2 0.0
1.5 -2 0.0
2 -2 0.0
2.5 -2 0.0
3 -2 0.0
3.5 -2 0.0
4 -2 0.0
4.5 -2 0.0
5 -2 0.0
6.9457 -2 0.0
8.8914 -2 0.0
12.3514 -2 0.0
15.8114 -2 0.0
21.9642 -2 0.0
28.1171 -2 0.0
39.0585 -2 0.0
50 -2 0.0
0 -2.5 0.0
1 -2.5 0.0
2 -2.5 0.0
3 -2.5 0.0
4 -2.5 0.0
5 -2.5 0.0
8.8914 -2.5 0.0
15.8114 -2.5 0.0
28.1171 -2.5 0.0
50 -2.5 0.0
0 -3 0.0
0.5 -3 0.0
1 -3 0.0
1.5 -3 0.0
2 -3 0.0
2.5 -3 0.0
3 -3 0.0
3.5 -3 0.0
4 -3 0.0
4.5 -3 0.0
5 -3 0.0
6.9457 -3 0.0
8.8914 -3 0.0
12.3514 -3 0.0
15.8114 -3 0.0
21.9642 -3 0.0
28.1171 -3 0.0
39.0585 -3 0.0
50 -3 0.0
0 -3.5 0.0
1 -3.5 0.0
2 -3.5 0.0
3 -3.5 0.0
4 -3.5 0.0
5 -3.5 0.0
8.8914 -3.5 0.0
15.8114 -3.5 0.0
28.1171 -3.5 0.0
50 -3.5 0.0
0 -4 0.0
0.5 -4 0.0
1 -4 0.0
1.5 -4 0.0
2 -4 0.0
2.5 -4 0.0
3 -4 0.0
3.5 -4 0.0
4 -4 0.0
4.5 -4 0.0
5 -4 0.0
6.9457 -4 0.0
8.8914 -4 0.0
12.3514 -4 0.0
15.8114 -4 0.0
21.9642 -4 0.0
28.1171 -4 0.0
39.0585 -4 0.0
50 -4 0.0
0 -4.5 0.0
1 -4.5 0.0
2 -4.5 0.0
3 -4.5 0.0
4 -4.5 0.0
5 -4.5 0.0
8.8914 -4.5 0.0
15.8114 -4.5 0.0
28.1171 -4.5 0.0
50 -4.5 0.0
0 -5 0.0
0.5 -5 0.0
1 -5 0.0
1.5 -5 0.0
2 -5 0.0
2.5 -5 0.0
3 -5 0.0
3.5 -5 0.0
4 -5 0.0
4.5 -5 0.0
5 -5 0.0
6.9457 -5 0.0
8.8914 -5 0.0
12.3514 -5 0.0
15.8114 -5 0.0
21.9642 -5 0.0
28.1171 -5 0.0
39.0585 -5 0.0
50 -5 0.0
0 -5.5 0.0
1 -5.5 0.0
2 -5.5 0.0
3 -5.5 0.0
4 -5.5 0.0
5 -5.5 0.0
8.8914 -5.5 0.0
15.8114 -5.5 0.0
28.1171 -5.5 0.0
50 -5.5 0.0
0 -6 0.0
0.5 -6 0.0
1 -6 0.0
1.5 -6 0.0
2 -6 0.0
2.5 -6 0.0
3 -6 0.0
3.5 -6 0.0
4 -6 0.0
4.5 -6 0.0
5 -6 0.0
6.9457 -6 0.0
8.8914 -6 0.0
12.3514 -6 0.0
15.8114 -6 0.0
21.9642 -6 0.0
28.1171 -6 0.0
39.0585 -6 0.0
50 -6 0.0
0 -6.5 0.0
1 -6.5 0.0
2 -6.5 0.0
3 -6.5 0.0
4 -6.5 0.0
5 -6.5 0.0
8.8914 -6.5 0.0
15.8114 -6.5 0.0
28.1171 -6.5 0.0
50 -6.5 0.0
0 -7 0.0
0.5 -7 0.0
1 -7 0.0
1.5 -7 0.0
2 -7 0.0
2.5 -7 0.0
3 -7 0.0
3.5 -7 0.0
4 -7 0.0
4.5 -7 0.0
5 -7 0.0
6.9457 -7 0.0
8.8914 -7 0.0
12.3514 -7 0.0
15.8114 -7 0.0
21.9642 -7 0.0
28.1171 -7 0.0
39.0585 -7 0.0
50 -7 0.0
0 -7.5 0.0
1 -7.5 0.0
2 -7.5 0.0
3 -7.5 0.0
4 -7.5 0.0
5 -7.5 0.0
8.8914 -7.5 0.0
15.8114 -7.5 0.0
28.1171 -7.5 0.0
50 -7.5 0.0
0 -8 0.0
0.5 -8 0.0
1 -8 0.0
1.5 -8 0.0
2 -8 0.0
2.5 -8 0.0
3 -8 0.0
3.5 -8 0.0
4 -8 0.0
4.5 -8 0.0
5 -8 0.0
6.9457 -8 0.0
8.8914 -8 0.0
12.3514 -8 0.0
15.8114 -8 0.0
21.9642 -8 0.0
28.1171 -8 0.0
39.0585 -8 0.0
50 -8 0.0
0 -8.5 0.0
1 -8.5 0.0
2 -8.5 0.0
3 -8.5 0.0
4 -8.5 0.0
5 -8.5 0.0
8.8914 -8.5 0.0
15.8114 -8.5 0.0
28.1171 -8.5 0.0
50 -8.5 0.0
0 -9 0.0
0.5 -9 0.0
1 -9 0.0
1.5 -9 0.0
2 -9 0.0
2.5 -9 0.0
3 -9 0.0
3.5 -9 0.0
4 -9 0.0
4.5 -9 0.0
5 -9 0.0
6.9457 -9 0.0
8.8914 -9 0.0
12.3514 -9 0.0
15.8114 -9 0.0
21.9642 -9 0.0
28.1171 -9 0.0
39.0585 -9 0.0
50 -9 0.0
0 -9.5 0.0
1 -9.5 0.0
2 -9.5 0.0
3 -9.5 0.0
4 -9.5 0.0
5 -9.5 0.0
8.8914 -9.5 0.0
15.8114 -9.5 0.0
28.1171 -9.5 0.0
50 -9.5 0.0
0 -10 0.0
0.5 -10 0.0
1 -10 0.0
1.5 -10 0.0
2 -10 0.0
2.5 -10 0.0
3 -10 0.0
3.5 -10 0.0
4 -10 0.0
4.5 -10 0.0
5 -10 0.0
6.9457 -10 0.0
8.8914 -10 0.0
12.3514 -10 0.0
15.8114 -10 0.0
21.9642 -10 0.0
28.1171 -10 0.0
39.0585 -10 0.0
50 -10 0.0
0 -10.5 0.0
1 -10.5 0.0
2 -10.5 0.0
3 -10.5 0.0
4 -10.5 0.0
5 -10.5 0.0
8.8914 -10.5 0.0
15.8114 -10.5 0.0
28.1171 -10.5 0.0
50 -10.5 0.0
0 -11 0.0
0.5 -11 0.0
1 -11 0.0
1.5 -11 0.0
2 -11 0.0
2.5 -11 0.0
3 -11 0.0
3.5 -11 0.0
4 -11 0.0
4.5 -11 0.0
5 -11 0.0
6.9457 -11 0.0
8.8914 -11 0.0
12.3514 -11 0.0
15.8114 -11 0.0
21.9642 -11 0.0
28.1171 -11 0.0
39.0585 -11 0.0
50 -11 0.0
0 -11.5 0.0
1 -11.5 0.0
2 -11.5 0.0
3 -11.5 0.0
4 -11.5 0.0
5 -11.5 0.0
8.8914 -11.5 0.0
15.8114 -11.5 0.0
28.1171 -11.5 0.0
50 -11.5 0.0
0 -12 0.0
0.5 -12 0.0
1 -12 0.0
1.5 -12 0.0
2 -12 0.0
2.5 -12 0.0
3 -12 0.0
3.5 -12 0.0
4 -12 0.0
4.5 -12 0.0
5 -12 0.0
6.9457 -12 0.0
8.8914 -12 0.0
12.3514 -12 0.0
15.8114 -12 0.0
21.9642 -12 0.0
28.1171 -12 0.0
39.0585 -12 0.0
50 -12 0.0
0 -12.5 0.0
1 -12.5 0.0
2 -12.5 0.0
3 -12.5 0.0
4 -12.5 0.0
5 -12.5 0.0
8.8914 -12.5 0.0
15.8114 -12.5 0.0
28.1171 -12.5 0.0
50 -12.5 0.0
0 -13 0.0
0.5 -13 0.0
1 -13 0.0
1.5 -13 0.0
2 -13 0.0
2.5 -13 0.0
3 -13 0.0
3.5 -13 0.0
4 -13 0.0
4.5 -13 0.0
5 -13 0.0
6.9457 -13 0.0
8.8914 -13 0.0
12.3514 -13 0.0
15.8114 -13 0.0
21.9642 -13 0.0
28.1171 -13 0.0
39.0585 -13 0.0
50 -13 0.0
0 -13.5 0.0
1 -13.5 0.0
2 -13.5 0.0
3 -13.5 0.0
4 -13.5 0.0
5 -13.5 0.0
8.8914 -13.5 0.0
15.8114 -13.5 0.0
28.1171 -13.5 0.0
50 -13.5 0.0
0 -14 0.0
0.5 -14 0.0
1 -14 0.0
1.5 -14 0.0
2 -14 0.0
2.5 -14 0.0
3 -14 0.0
3.5 -14 0.0
4 -14 0.0
4.5 -14 0.0
5 -14 0.0
6.9457 -14 0.0
8.8914 -14 0.0
12.3514 -14 0.0
15.8114 -14 0.0
21.9642 -14 0.0
28.1171 -14 0.0
39.0585 -14 0.0
50 -14 0.0
0 -14.5 0.0
1 -14.5 0.0
2 -14.5 0.0
3 -14.5 0.0
4 -14.5 0.0
5 -14.5 0.0
8.8914 -14.5 0.0
15.8114 -14.5 0.0
28.1171 -14.5 0.0
50 -14.5 0.0
0 -15 0.0
0.5 -15 0.0
1 -15 0.0
1.5 -15 0.0
2 -15 0.0
2.5 -15 0.0
3 -15 0.0
3.5 -15 0.0
4 -15 0.0
4.5 -15 0.0
5 -15 0.0
6.9457 -15 0.0
8.8914 -15 0.0
12.3514 -15 0.0
15.8114 -15 0.0
21.9642 -15 0.0
28.1171 -15 0.0
39.0585 -15 0.0
50 -15 0.0
0 -16.5 0.0
1 -16.5 0.0
2 -16.5 0.0
3 -16.5 0.0
4 -16.5 0.0
5 -16.5 0.0
8.8914 -16.5 0.0
15.8114 -16.5 0.0
28.1171 -16.5 0.0
50 -16.5 0.0
0 -18 0.0
0.5 -18 0.0
1 -18 0.0
1.5 -18 0.0
2 -18 0.0
2.5 -18 0.0
3 -18 0.0
3.5 -18 0.0
4 -18 0.0
4.5 -18 0.0
5 -18 0.0
6.9457 -18 0.0
8.8914 -18 0.0
12.3514 -18 0.0
15.8114 -18 0.0
21.9642 -18 0.0
28.1171 -18 0.0
39.0585 -18 0.0
50 -18 0.0
0 -19.5 0.0
1 -19.5 0.0
2 -19.5 0.0
3 -19.5 0.0
4 -19.5 0.0
5 -19.5 0.0
8.8914 -19.5 0.0
15.8114 -19.5 0.0
28.1171 -19.5 0.0
50 -19.5 0.0
0 -21 0.0
0.5 -21 0.0
1 -21 0.0
1.5 -21 0.0
2 -21 0.0
2.5 -21 0.0
3 -21 0.0
3.5 -21 0.0
4 -21 0.0
4.5 -21 0.0
5 -21 0.0
6.9457 -21 0.0
8.8914 -21 0.0
12.3514 -21 0.0
15.8114 -21 0.0
21.9642 -21 0.0
28.1171 -21 0.0
39.0585 -21 0.0
50 -21 0.0
0 -22.5 0.0
1 -22.5 0.0
2 -22.5 0.0
3 -22.5 0.0
4 -22.5 0.0
5 -22.5 0.0
8.8914 -22.5 0.0
15.8114 -22.5 0.0
28.1171 -22.5 0.0
50 -22.5 0.0
0 -24 0.0
0.5 -24 0.0
1 -24 0.0
1.5 -24 0.0
2 -24 0.0
2.5 -24 0.0
3 -24 0.0
3.5 -24 0.0
4 -24 0.0
4.5 -24 0.0
5 -24 0.0
6.9457 -24 0.0
8.8914 -24 0.0
12.3514 -24 0.0
15.8114 -24 0.0
21.9642 -24 0.0
28.1171 -24 0.0
39.0585 -24 0.0
50 -24 0.0
0 -25.5 0.0
1 -25.5 0.0
2 -25.5 0.0
3 -25.5 0.0
4 -25.5 0.0
5 -25.5 0.0
8.8914 -25.5 0.0
15.8114 -25.5 0.0
28.1171 -25.5 0.0
50 -25.5 0.0
0 -27 0.0
0.5 -27 0.0
1 -27 0.0
1.5 -27 0.0
2 -27 0.0
2.5 -27 0.0
3 -27 0.0
3.5 -27 0.0
4 -27 0.0
4.5 -27 0.0
5 -27 0.0
6.9457 -27 0.0
8.8914 -27 0.0
12.3514 -27 0.0
15.8114 -27 0.0
21.9642 -27 0.0
28.1171 -27 0.0
39.0585 -27 0.0
50 -27 0.0
0 -28.5 0.0
1 -28.5 0.0
2 -28.5 0.0
3 -28.5 0.0
4 -28.5 0.0
5 -28.5 0.0
8.8914 -28.5 0.0
15.8114 -28.5 0.0
28.1171 -28.5 0.0
50 -28.5 0.0
0 -30 0.0
0.5 -30 0.0
1 -30 0.0
1.5 -30 0.0
2 -30 0.0
2.5 -30 0.0
3 -30 0.0
3.5 -30 0.0
4 -30 0.0
4.5 -30 0.0
5 -30 0.0
6.9457 -30 0.0
8.8914 -30 0.0
12.3514 -30 0.0
15.8114 -30 0.0
21.9642 -30 0.0
28.1171 -30 0.0
39.0585 -30 0.0
50 -30 0.0
0 -31.5 0.0
1 -31.5 0.0
2 -31.5 0.0
3 -31.5 0.0
4 -31.5 0.0
5 -31.5 0.0
8.8914 -31.5 0.0
15.8114 -31.5 0.0
28.1171 -31.5 0.0
50 -31.5 0.0
0 -33 0.0
0.5 -33 0.0
1 -33 0.0
1.5 -33 0.0
2 -33 0.0
2.5 -33 0.0
3 -33 0.0
3.5 -33 0.0
4 -33 0.0
4.5 -33 0.0
5 -33 0.0
6.9457 -33 0.0
8.8914 -33 0.0
12.3514 -33 0.0
15.8114 -33 0.0
21.9642 -33 0.0
28.1171 -33 0.0
39.0585 -33 0.0
50 -33 0.0
0 -34.5 0.0
1 -34.5 0.0
2 -34.5 0.0
3 -34.5 0.0
4 -34.5 0.0
5 -34.5 0.0
8.8914 -34.5 0.0
15.8114 -34.5 0.0
28.1171 -34.5 0.0
50 -34.5 0.0
0 -36 0.0
0.5 -36 0.0
1 -36 0.0
1.5 -36 0.0
2 -36 0.0
2.5 -36 0.0
3 -36 0.0
3.5 -36 0.0
4 -36 0.0
4.5 -36 0.0
5 -36 0.0
6.9457 -36 0.0
8.8914 -36 0.0
12.3514 -36 0.0
15.8114 -36 0.0
21.9642 -36 0.0
28.1171 -36 0.0
39.0585 -36 0.0
50 -36 0.0
0 -37.5 0.0
1 -37.5 0.0
2 -37.5 0.0
3 -37.5 0.0
4 -37.5 0.0
5 -37.5 0.0
8.8914 -37.5 0.0
15.8114 -37.5 0.0
28.1171 -37.5 0.0
50 -37.5 0.0
0 -39 0.0
0.5 -39 0.0
1 -39 0.0
1.5 -39 0.0
2 -39 0.0
2.5 -39 0.0
3 -39 0.0
3.5 -39 0.0
4 -39 0.0
4.5 -39 0.0
5 -39 0.0
6.9457 -39 0.0
8.8914 -39 0.0
12.3514 -39 0.0
15.8114 -39 0.0
21.9642 -39 0.0
28.1171 -39 0.0
39.0585 -39 0.0
50 -39 0.0
0 -40.5 0.0
1 -40.5 0.0
2 -40.5 0.0
3 -40.5 0.0
4 -40.5 0.0
5 -40.5 0.0
8.8914 -40.5 0.0
15.8114 -40.5 0.0
28.1171 -40.5 0.0
50 -40.5 0.0
0 -42 0.0
0.5 -42 0.0
1 -42 0.0
1.5 -42 0.0
2 -42 0.0
2.5 -42 0.0
3 -42 0.0
3.5 -42 0.0
4 -42 0.0
4.5 -42 0.0
5 -42 0.0
6.9457 -42 0.0
8.8914 -42 0.0
12.3514 -42 0.0
15.8114 -42 0.0
21.9642 -42 0.0
28.1171 -42 0.0
39.0585 -42 0.0
50 -42 0.0
0 -43.5 0.0
1 -43.5 0.0
2 -43.5 0.0
3 -43.5 0.0
4 -43.5 0.0
5 -43.5 0.0
8.8914 -43.5 0.0
15.8114 -43.5 0.0
28.1171 -43.5 0.0
50 -43.5 0.0
0 -45 0.0
0.5 -45 0.0
1 -45 0.0
1.5 -45 0.0
2 -45 0.0
2.5 -45 0.0
3 -45 0.0
3.5 -45 0.0
4 -45 0.0
4.5 -45 0.0
5 -45 0.0
6.9457 -45 0.0
8.8914 -45 0.0
12.3514 -45 0.0
15.8114 -45 0.0
21.9642 -45 0.0
28.1171 -45 0.0
39.0585 -45 0.0
50 -45 0.0
0 -50.5 0.0
1 -50.5 0.0
2 -50.5 0.0
3 -50.5 0.0
4 -50.5 0.0
5 -50.5 0.0
8.8914 -50.5 0.0
15.8114 -50.5 0.0
28.1171 -50.5 0.0
50 -50.5 0.0
0 -56 0.0
0.5 -56 0.0
1 -56 0.0
1.5 -56 0.0
2 -56 0.0
2.5 -56 0.0
3 -56 0.0
3.5 -56 0.0
4 -56 0.0
4.5 -56 0.0
5 -56 0.0
6.9457 -56 0.0
8.8914 -56 0.0
12.3514 -56 0.0
15.8114 -56 0.0
21.9642 -56 0.0
28.1171 -56 0.0
39.0585 -56 0.0
50 -56 0.0
0 -61.5 0.0
1 -61.5 0.0
2 -61.5 0.0
3 -61.5 0.0
4 -61.5 0.0
5 -61.5 0.0
8.8914 -61.5 0.0
15.8114 -61.5 0.0
28.1171 -61.5 0.0
[...]
POINT_DATA 889
SCALARS Displacement_R double 1
LOOKUP_TABLE default
0
-6.45943e-05
-0.000129235
-0.000193905
-0.000258051
-0.000323479
-0.000388684
-0.000460112
-0.000523921
-0.00056801
-0.000586662
-0.000477659
-0.000338655
-0.000248763
-0.000180048
-0.000120976
-7.63709e-05
-3.34924e-05
0
0
-8.32473e-05
-0.000162251
-0.000230164
-0.000265499
-0.000276472
-0.000271003
-0.000158509
-7.09809e-05
0
0
-2.07994e-05
-4.06037e-05
-5.90069e-05
-7.43406e-05
-8.54517e-05
-8.96441e-05
-8.94012e-05
-8.15845e-05
-6.36832e-05
-7.24241e-05
-0.000167359
-0.000195873
-0.000167984
-0.000138309
-9.73616e-05
-6.54383e-05
-2.8843e-05
0
0
-4.23341e-06
-9.1405e-07
1.65598e-05
4.76843e-05
5.02281e-05
-0.000125056
-0.000116328
-5.95976e-05
0
0
1.21124e-05
2.50426e-05
3.9062e-05
5.5153e-05
7.38433e-05
9.41361e-05
0.000114555
0.000130406
0.000135993
0.00012999
3.04787e-05
-5.95312e-05
-9.54329e-05
-9.44742e-05
-7.50601e-05
-5.3806e-05
-2.43711e-05
0
0
4.64758e-05
9.55595e-05
0.000145452
0.000183445
0.000186089
-2.94243e-06
-7.389e-05
-4.79693e-05
0
0
3.06233e-05
6.1252e-05
9.19072e-05
0.00012206
0.000151355
0.000177815
0.00020048
0.000216252
0.000223053
0.000220383
0.000142492
4.61472e-05
-3.07897e-05
-5.35131e-05
-5.37211e-05
-4.22158e-05
-2.00226e-05
0
0
7.04284e-05
0.000137998
0.000196561
0.000235188
0.000243222
8.54084e-05
-3.48323e-05
-3.65192e-05
0
0
3.79327e-05
7.52823e-05
0.000111653
0.000146029
0.00017776
0.000205461
0.000228056
0.000244314
0.000253141
0.000254684
0.00020196
0.000117803
2.38325e-05
-1.6685e-05
-3.3545e-05
-3.09028e-05
-1.58045e-05
0
0
7.70233e-05
0.000148506
0.000207586
0.00024658
0.000260135
0.000142842
-1.04159e-07
-2.54163e-05
0
0
3.86777e-05
7.65536e-05
0.000113021
0.00014711
0.000178149
0.000205127
0.000227312
0.000244049
0.000254844
0.000259766
0.000229201
0.000162367
6.73252e-05
1.56634e-05
-1.47699e-05
-2.00062e-05
-1.17319e-05
0
0
7.4644e-05
0.000143252
0.000199651
0.000238386
0.000256297
0.000176952
2.9959e-05
-1.479e-05
0
0
3.63028e-05
7.18164e-05
0.00010592
0.000137792
0.000166816
0.000192296
0.000213664
0.00023055
0.000242664
0.000250045
0.00023697
0.000187389
0.000100147
4.32752e-05
2.44014e-06
-9.65422e-06
-7.81927e-06
0
0
6.8468e-05
0.000131458
0.000183816
0.000221485
0.000242267
0.000194661
5.5204e-05
-4.75475e-06
0
0
3.27729e-05
6.486e-05
9.57124e-05
0.000124665
0.000151199
0.000174798
0.000195026
0.000211627
0.000224413
0.000233372
0.00023334
0.000198943
0.000123621
6.6094e-05
1.7973e-05
5.32323e-08
-4.08109e-06
0
0
6.11775e-05
0.000117764
0.000165589
0.000201519
0.000223837
0.00020127
7.57119e-05
4.60399e-06
0
0
2.90501e-05
5.75379e-05
8.50078e-05
0.000110932
0.000134885
0.000156475
0.000175353
0.000191325
0.000204248
0.00021408
0.000223368
0.000201516
0.000139352
8.43104e-05
3.17617e-05
9.04826e-06
-5.31847e-07
0
0
5.40159e-05
0.000104323
0.000147596
0.000181355
0.000204177
0.000200602
9.17836e-05
1.32295e-05
0
0
2.55536e-05
5.06577e-05
7.49463e-05
9.80019e-05
0.000119484
0.000139084
0.000156522
0.00017164
0.000184321
0.000194505
0.000210186
0.00019829
0.000148917
9.83071e-05
4.37862e-05
1.72886e-05
2.81524e-06
0
0
4.74859e-05
9.2025e-05
0.000130978
0.000162357
0.000184956
0.00019533
0.000103869
2.1088e-05
0
0
2.24341e-05
4.45127e-05
6.59455e-05
8.64026e-05
0.000105612
0.000123329
0.000139328
0.000153474
0.000165669
0.000175844
0.000195694
0.000191471
0.000153715
0.000108578
5.40733e-05
2.47514e-05
5.94896e-06
0
0
4.17373e-05
8.11459e-05
0.000116131
0.000145089
0.00016699
0.000187288
0.000112491
2.81635e-05
0
0
1.97187e-05
3.9157e-05
5.80852e-05
7.62423e-05
9.34113e-05
0.000109396
0.000124012
0.000137147
0.000148714
0.000158644
0.000181019
0.000182563
0.000154922
0.000115659
6.26908e-05
3.14288e-05
8.86053e-06
0
0
3.67615e-05
7.16823e-05
0.000103096
0.000129698
0.000150614
0.000177713
0.000118185
3.44541e-05
0
0
1.73821e-05
3.45424e-05
5.12993e-05
6.74449e-05
8.28061e-05
9.72234e-05
0.000110549
0.000122684
0.000133553
0.000143091
0.000166797
0.000172572
0.000153491
0.000120076
6.97387e-05
3.73257e-05
1.15436e-05
0
0
3.24866e-05
6.3513e-05
9.17471e-05
0.000116126
0.0001359
0.000167427
0.00012146
3.99705e-05
0
0
1.53799e-05
3.05839e-05
4.54669e-05
5.98637e-05
7.36344e-05
8.66504e-05
9.87895e-05
0.000109969
0.000120118
0.000129182
0.000153368
0.000162163
0.000150176
0.000122314
7.53394e-05
4.24583e-05
1.39943e-05
0
0
2.88206e-05
5.64773e-05
8.18997e-05
0.000104217
0.000122789
0.000156964
0.000122777
4.47342e-05
0
0
1.36643e-05
2.71872e-05
4.04559e-05
5.33327e-05
6.57097e-05
7.74774e-05
8.85396e-05
9.8822e-05
0.000108271
0.000116823
0.000140886
0.00015176
0.000145562
0.000122805
7.96279e-05
4.68532e-05
1.6211e-05
0
0
2.56742e-05
5.04135e-05
7.33536e-05
9.37841e-05
0.000111156
0.000146645
0.000122537
4.87762e-05
0
0
1.21915e-05
2.42716e-05
3.61396e-05
4.76991e-05
5.88463e-05
6.95091e-05
7.95911e-05
8.90484e-05
9.78197e-05
0.000105874
0.000129423
0.000141595
0.000140101
0.000121917
8.27443e-05
5.05454e-05
1.81941e-05
0
0
2.06435e-05
4.06698e-05
5.9498e-05
7.66307e-05
9.16704e-05
0.00012739
0.000118833
5.47871e-05
0
0
8.87368e-06
1.76877e-05
2.63857e-05
3.49165e-05
4.32172e-05
5.12531e-05
5.89615e-05
6.63216e-05
7.32829e-05
7.98289e-05
0.000100632
0.000114355
0.000121495
0.000113792
8.64739e-05
5.77601e-05
2.28042e-05
0
0
1.52937e-05
3.0238e-05
4.45012e-05
5.77873e-05
6.98471e-05
0.000102542
0.000108239
5.95294e-05
0
0
6.66823e-06
1.3301e-05
1.98668e-05
2.63332e-05
3.26658e-05
3.88392e-05
4.48196e-05
5.0588e-05
5.61135e-05
6.13842e-05
7.90879e-05
9.209e-05
0.000102922
0.000101871
8.42026e-05
6.0287e-05
2.55478e-05
0
0
1.16487e-05
2.30874e-05
3.41139e-05
4.45441e-05
5.42213e-05
8.26735e-05
9.55338e-05
6.02361e-05
0
0
5.1362e-06
1.02506e-05
1.53238e-05
2.03354e-05
2.52641e-05
3.00939e-05
3.48035e-05
3.93801e-05
4.38003e-05
4.80577e-05
6.28119e-05
7.44103e-05
8.63351e-05
8.90224e-05
7.85281e-05
5.9443e-05
2.67011e-05
0
0
9.06738e-06
1.80017e-05
2.66738e-05
3.49631e-05
4.2765e-05
6.6983e-05
8.27839e-05
5.81688e-05
0
0
4.03222e-06
8.0502e-06
1.20416e-05
1.59928e-05
1.98902e-05
2.37227e-05
2.7477e-05
3.11433e-05
3.47069e-05
3.8162e-05
5.03942e-05
6.04501e-05
7.21271e-05
7.66944e-05
7.11918e-05
5.63922e-05
2.65949e-05
0
0
7.17532e-06
1.42625e-05
2.11756e-05
2.78331e-05
3.41625e-05
5.45763e-05
7.0948e-05
5.43713e-05
0
0
3.21173e-06
6.41384e-06
9.59806e-06
1.27551e-05
1.58758e-05
1.89524e-05
2.1976e-05
2.49396e-05
2.78334e-05
3.06526e-05
4.07838e-05
4.93784e-05
6.01729e-05
6.54933e-05
6.32976e-05
5.20419e-05
2.55651e-05
0
0
5.75034e-06
1.14402e-05
1.70103e-05
2.24039e-05
2.75693e-05
4.46978e-05
6.0382e-05
4.96287e-05
0
0
2.58674e-06
5.16678e-06
7.73436e-06
1.02829e-05
1.28062e-05
1.52986e-05
1.77539e-05
2.01668e-05
2.2531e-05
2.48426e-05
3.32401e-05
4.05278e-05
5.01861e-05
5.5608e-05
5.55023e-05
4.70534e-05
2.39152e-05
0
0
4.65293e-06
9.2631e-06
1.37884e-05
1.81883e-05
2.2425e-05
3.67652e-05
5.11514e-05
4.44962e-05
0
0
2.10099e-06
4.19714e-06
6.28441e-06
8.35797e-06
1.04135e-05
1.24466e-05
1.44532e-05
1.64291e-05
1.83705e-05
2.02731e-05
2.72419e-05
3.33922e-05
4.18616e-05
4.70288e-05
4.81686e-05
4.18818e-05
2.1898e-05
0
0
3.79248e-06
7.55391e-06
1.12536e-05
1.48618e-05
1.83506e-05
3.03424e-05
4.31899e-05
3.93451e-05
0
0
1.71725e-06
3.431e-06
5.13811e-06
6.83528e-06
8.51914e-06
1.01867e-05
1.18344e-05
1.34595e-05
1.5058e-05
1.66301e-05
2.24195e-05
2.75941e-05
3.49236e-05
3.96591e-05
4.14745e-05
3.68224e-05
1.97112e-05
0
0
3.1075e-06
6.19207e-06
9.23064e-06
1.22015e-05
1.50832e-05
2.51042e-05
3.63786e-05
3.44078e-05
0
0
1.40991e-06
2.81699e-06
4.21936e-06
5.61379e-06
6.99898e-06
8.37139e-06
9.72887e-06
1.10693e-05
1.23949e-05
1.36919e-05
1.85073e-05
2.28509e-05
2.91365e-05
3.33725e-05
3.54856e-05
3.20526e-05
1.75008e-05
0
0
2.55768e-06
5.0966e-06
7.5987e-06
1.00504e-05
1.24337e-05
2.08092e-05
3.05819e-05
2.98113e-05
0
0
1.16225e-06
2.32265e-06
3.47917e-06
4.63041e-06
5.77222e-06
6.90549e-06
8.01927e-06
9.12147e-06
1.02029e-05
1.12948e-05
1.53108e-05
1.89567e-05
2.43004e-05
2.80313e-05
3.02098e-05
2.76553e-05
1.5372e-05
0
0
1.641e-06
3.27279e-06
4.88775e-06
6.48315e-06
8.03151e-06
1.35205e-05
2.02883e-05
2.0855e-05
0
0
5.87011e-07
1.17314e-06
1.75161e-06
2.32746e-06
2.88775e-06
3.44341e-06
3.97254e-06
4.49448e-06
5.09586e-06
5.62692e-06
7.68676e-06
9.65191e-06
1.24438e-05
1.46017e-05
1.62087e-05
1.54006e-05
8.87531e-06
0
0
8.09436e-07
1.6255e-06
2.45328e-06
3.2982e-06
4.01733e-06
6.6591e-06
1.03718e-05
1.12614e-05
0
0
-4.0203e-11
-3.78097e-10
-1.39845e-08
-2.80554e-08
-6.62131e-08
-1.04748e-07
-1.7635e-07
-2.47571e-07
0
4.66631e-07
2.40616e-06
4.12014e-06
5.95287e-06
7.32217e-06
8.41554e-06
8.17266e-06
4.7901e-06
0
0
3.94708e-07
8.03593e-07
1.23754e-06
1.70545e-06
2.00564e-06
3.18532e-06
5.20989e-06
5.89237e-06
0
9.36343e-10
8.87685e-09
1.70813e-08
1.28368e-08
7.95635e-09
-2.02405e-08
-4.97151e-08
-1.1335e-07
-1.79245e-07
0
2.1894e-07
1.22039e-06
2.16549e-06
3.03304e-06
3.73834e-06
4.32853e-06
4.24706e-06
2.51284e-06
0
0
2.01451e-07
4.10459e-07
6.33852e-07
8.80413e-07
1.03838e-06
1.63492e-06
2.6523e-06
3.01255e-06
0
2.99834e-10
5.11998e-09
9.88188e-09
9.52732e-09
8.91285e-09
-2.28886e-09
-1.38138e-08
-4.35332e-08
-7.34834e-08
0
1.13696e-07
6.00795e-07
1.03978e-06
1.46791e-06
1.7906e-06
2.07642e-06
2.03147e-06
1.20875e-06
0
0
7.70902e-08
1.55378e-07
2.36872e-07
3.26425e-07
3.89374e-07
6.2111e-07
9.86131e-07
1.11219e-06
0
0
0
0
0
0
0
0
0
0
0
0
0
0
0
0
0
0
0
0
SCALARS Displacement_Z double 1
LOOKUP_TABLE default
-0.00441343
-0.00440197
-0.00436709
-0.00430866
-0.00422486
-0.00411172
-0.00396619
-0.00378433
-0.00354016
-0.00321829
-0.00270181
-0.00163791
-0.00121263
-0.000813407
-0.000607741
-0.000406906
-0.000304865
-0.00021915
-0.000197861
-0.004273
-0.00422686
-0.00408257
-0.00382452
-0.00339156
-0.00265712
-0.00120945
-0.000607441
-0.000304378
-0.000197319
-0.004115
-0.00410333
-0.00406783
-0.00400817
-0.00392204
-0.00380651
-0.00365681
-0.00346957
-0.0032367
-0.00293436
-0.00260706
-0.00165918
-0.00120975
-0.000813995
-0.000607102
-0.000406012
-0.000303993
-0.000218117
-0.000196791
-0.00394178
-0.00389426
-0.00374644
-0.00348292
-0.00307343
-0.00253901
-0.00121161
-0.000607343
-0.000303691
-0.000196347
-0.00375868
-0.00374687
-0.00371085
-0.00365049
-0.00356399
-0.00344956
-0.00330556
-0.00313164
-0.00292679
-0.00269742
-0.00246057
-0.00166883
-0.00121413
-0.000817359
-0.000607826
-0.000405636
-0.000303442
-0.000217216
-0.000195937
-0.0035708
-0.00352393
-0.00338064
-0.00313479
-0.00278874
-0.00238275
-0.00121767
-0.000608238
-0.000303233
-0.00019555
-0.00338288
-0.00337161
-0.00333765
-0.00328093
-0.00320103
-0.0030978
-0.00297211
-0.00282506
-0.00266075
-0.00248235
-0.00229923
-0.00164981
-0.00121957
-0.000822185
-0.000609043
-0.000405871
-0.000303041
-0.000216487
-0.000195209
-0.00319917
-0.00315644
-0.00302846
-0.00281827
-0.00253834
-0.0022207
-0.00121992
-0.000609552
-0.000302902
-0.000194878
-0.00302226
-0.0030123
-0.00298256
-0.0029332
-0.0028647
-0.00277766
-0.00267368
-0.00255472
-0.00242393
-0.00228381
-0.00213974
-0.00160798
-0.00121777
-0.000826621
-0.000610381
-0.000406577
-0.000302777
-0.000215927
-0.000194591
-0.00285434
-0.00281792
-0.00271044
-0.00253828
-0.00231496
-0.00206366
-0.00121318
-0.000610923
-0.000302702
-0.000194316
-0.00269628
-0.00268794
-0.00266322
-0.00262236
-0.00256615
-0.00249534
-0.00241159
-0.00231661
-0.00221276
-0.00210185
-0.00198734
-0.00155133
-0.00120599
-0.000828865
-0.000611624
-0.000407569
-0.000302651
-0.000215527
-0.000194079
-0.00254855
-0.00251876
-0.00243148
-0.0022933
-0.00211572
-0.00191541
-0.0011965
-0.000612037
-0.000302632
-0.000193858
-0.00241113
-0.00240436
-0.00238438
-0.00235144
-0.00230628
-0.00224961
-0.00218282
-0.00210724
-0.0020246
-0.00193627
-0.00184456
-0.00148617
-0.00118472
-0.00082782
-0.000612439
-0.000408673
-0.000302644
-0.000215274
-0.000193668
-0.00228359
-0.00225969
-0.00218988
-0.00207976
-0.00193833
-0.00177764
-0.00117117
-0.000612521
-0.000302666
-0.000193497
-0.00216553
-0.00216011
-0.00214417
-0.00211788
-0.00208188
-0.00203675
-0.00198355
-0.0019233
-0.00185726
-0.00178647
-0.00171253
-0.00141695
-0.00115576
-0.000823079
-0.000612449
-0.00040973
-0.000302725
-0.000215153
-0.00019335
-0.0020562
-0.00203716
-0.00198156
-0.00189378
-0.00178064
-0.00165092
-0.00113918
-0.000612022
-0.000302775
-0.000193226
-0.0019551
-0.00195079
-0.00193808
-0.00191714
-0.00188844
-0.00185244
-0.00180993
-0.00176167
-0.00170859
-0.00165147
-0.00159147
-0.00134673
-0.0011212
-0.000814719
-0.000611334
-0.000410594
-0.000302859
-0.000215147
-0.000193122
-0.00186144
-0.00184625
-0.00180187
-0.0017316
-0.00164054
-0.00153513
-0.00110257
-0.000610269
-0.000302921
-0.00019304
-0.00177471
-0.00177127
-0.00176112
-0.00174436
-0.00172139
-0.00169252
-0.00165835
-0.00161944
-0.00157649
-0.00153008
-0.00148106
-0.0012775
-0.00108295
-0.000803107
-0.000608877
-0.000411137
-0.000303011
-0.000215236
-0.000192977
-0.00169423
-0.00168206
-0.00164642
-0.00158981
-0.001516
-0.00142976
-0.00106308
-0.000607105
-0.000303068
-0.000192934
-0.00161952
-0.00161675
-0.00160859
-0.0015951
-0.00157658
-0.00155327
-0.0015256
-0.00149401
-0.00145899
-0.00142101
-0.00138068
-0.00121052
-0.00104259
-0.000788749
-0.000604974
-0.000411256
-0.000303143
-0.000215403
-0.000192909
-0.00155001
-0.00154018
-0.00151137
-0.0014654
-0.00140512
-0.00133406
-0.00102215
-0.000602476
-0.000303178
-0.000192901
-0.0014853
-0.00148306
-0.00147644
-0.0014655
-0.00145045
-0.00143147
-0.0014089
-0.00138304
-0.00135427
-0.00132295
-0.00128954
-0.00114654
-0.00100136
-0.000772187
-0.000599615
-0.000410876
-0.00030322
-0.000215628
-0.00019291
-0.00142491
-0.00141692
-0.00139342
-0.0013558
-0.00130618
-0.0012472
-0.000980822
-0.000596419
-0.000303215
-0.000192933
-0.00136852
-0.00136669
-0.00136128
-0.00135233
-0.00134
-0.00132442
-0.00130585
-0.00128451
-0.0012607
-0.00123468
-0.00120681
-0.00108598
-0.000960167
-0.000753944
-0.000592872
-0.000409946
-0.000303205
-0.000215891
-0.000192972
-0.00131573
-0.00130917
-0.00128985
-0.00125881
-0.00121764
-0.00116834
-0.000939891
-0.00058903
-0.000303144
-0.00019302
-0.00126629
-0.00126478
-0.00126032
-0.00125293
-0.00124274
-0.00122985
-0.00121445
-0.00119671
-0.00117684
-0.00115508
-0.00113166
-0.00102899
-0.000919665
-0.000734495
-0.000584865
-0.000408444
-0.000303066
-0.000216175
-0.000193085
-0.00121986
-0.00121443
-0.00119841
-0.00117258
-0.00113816
-0.00109668
-0.000899893
-0.00058045
-0.000302933
-0.000193154
-0.00117624
-0.00117499
-0.00117128
-0.00116513
-0.00115664
-0.00114589
-0.00113301
-0.00111814
-0.00110145
-0.00108311
-0.00106332
-0.000975588
-0.000880293
-0.000714246
-0.000575745
-0.000406364
-0.000302774
-0.000216463
-0.000193239
-0.00113517
-0.00113063
-0.00111724
-0.00109557
-0.00106658
-0.00103145
-0.000861184
-0.00057084
-0.000302557
-0.000193324
-0.00109648
-0.00109541
-0.00109231
-0.00108714
-0.00108002
-0.00107096
-0.00106012
-0.00104755
-0.00103343
-0.00101787
-0.00100104
-0.000925703
-0.000842331
-0.000693541
-0.000565681
-0.000403722
-0.000302303
-0.000216737
-0.000193424
-0.000992622
-0.000989397
-0.000979818
-0.000964248
-0.000943251
-0.000917515
-0.000788872
-0.000549414
-0.000301184
-0.000193694
-0.000904376
-0.000903712
-0.000901806
-0.000898611
-0.000894214
-0.000888589
-0.000881837
-0.000873959
-0.00086506
-0.000855194
-0.000844437
-0.000795267
-0.000738522
-0.000631106
-0.000531561
-0.000392756
-0.000299623
-0.000217327
-0.000194073
-0.000828424
-0.000826372
-0.000820274
-0.000810306
-0.000796752
-0.000779958
-0.000692541
-0.000513388
-0.00029754
-0.000194329
-0.000762563
-0.000762137
-0.000760891
-0.00075881
-0.000755931
-0.000752247
-0.000747806
-0.00074261
-0.000736715
-0.000730156
-0.000722973
-0.00068955
-0.000649903
-0.000571557
-0.000494503
-0.000378097
-0.000294942
-0.000217316
-0.000194621
-0.000704896
-0.000703527
-0.000699449
-0.000692755
-0.000683599
-0.000672158
-0.000610922
-0.000475938
-0.000291873
-0.000194738
-0.000654082
-0.000653791
-0.000652942
-0.000651522
-0.000649554
-0.000647032
-0.000643985
-0.000640411
-0.000636342
-0.000631801
-0.000626806
-0.00060335
-0.000574973
-0.000517003
-0.000457269
-0.000361009
-0.000288309
-0.000216468
-0.000194808
-0.000608953
-0.000608002
-0.000605163
-0.000600491
-0.000594072
-0.000586011
-0.000541972
-0.000439256
-0.000284364
-0.000194676
-0.000568665
-0.000568461
-0.00056786
-0.000566857
-0.000565463
-0.000563677
-0.000561514
-0.000558973
-0.000556074
-0.000552829
-0.00054925
-0.000532333
-0.000511558
-0.000468037
-0.000421504
-0.000342574
-0.000279992
-0.000214649
-0.000194417
-0.000532469
-0.000531786
-0.000529748
-0.000526387
-0.000521754
-0.000515914
-0.000483514
-0.000404538
-0.000275336
-0.000193943
-0.000499803
-0.000499655
-0.000499218
-0.000498488
-0.000497474
-0.000496173
-0.000494595
-0.00049274
-0.000490621
-0.000488242
-0.000485612
-0.000473128
-0.000457619
-0.000424493
-0.000388027
-0.00032361
-0.00027034
-0.000211814
-0.000193281
-0.000470164
-0.000469661
-0.000468161
-0.000465682
-0.000462258
-0.00045793
-0.000433631
-0.000372311
-0.000265149
-0.000192399
-0.000443165
-0.000443056
-0.000442731
-0.000442188
-0.000441433
-0.000440464
-0.000439288
-0.000437904
-0.000436321
-0.000434541
-0.00043257
-0.000423178
-0.000411406
-0.000385883
-0.000357131
-0.00030468
-0.000259701
-0.000207976
-0.000191288
-0.000418459
-0.000418082
-0.000416955
-0.00041509
-0.00041251
-0.000409241
-0.000390724
-0.000342697
-0.000254134
-0.00018996
-0.00039577
-0.000395686
-0.00039544
-0.000395029
-0.000394457
-0.000393723
-0.00039283
-0.000391779
-0.000390576
-0.000389221
-0.00038772
-0.000380542
-0.000371482
-0.00035161
-0.000328812
-0.000286136
-0.000248381
-0.000203191
-0.000188382
-0.000374847
-0.000374559
-0.000373699
-0.000372274
-0.000370299
-0.000367793
-0.000353494
-0.000315596
-0.000242566
-0.000186596
-0.000355491
-0.000355428
-0.000355239
-0.000354923
-0.000354483
-0.000353918
-0.000353231
-0.000352422
-0.000351495
-0.000350449
-0.00034929
-0.000343734
-0.000336682
-0.000321074
-0.000302907
-0.000268183
-0.000236624
-0.000197537
-0.000184554
-0.000337519
-0.000337297
-0.000336631
-0.000335528
-0.000333998
-0.000332052
-0.000320895
-0.000290802
-0.000230659
-0.000182317
-0.000320781
-0.000320731
-0.000320584
-0.000320339
-0.000319996
-0.000319557
-0.000319022
-0.000318392
-0.000317668
-0.000316854
-0.000315949
-0.000311606
-0.000306067
-0.000293717
-0.000279182
-0.000250917
-0.00022461
-0.0001911
-0.000179831
-0.000305135
-0.000304963
-0.000304445
-0.000303583
-0.000302382
-0.000300864
-0.000292088
-0.000268062
-0.000218564
-0.000177164
-0.000290465
-0.000290428
-0.000290314
-0.000290126
-0.000289861
-0.000289522
-0.000289108
-0.000288611
-0.000288043
-0.000287397
-0.000286682
-0.000283245
-0.000278896
-0.000269042
-0.000257376
-0.000234371
-0.000212463
-0.000183972
-0.000174263
-0.000243503
-0.000243399
-0.000243092
-0.000242584
-0.000241896
-0.000241014
-0.000235897
-0.000221575
-0.000190427
-0.000162331
-0.000204618
-0.000204602
-0.000204562
-0.000204489
-0.000204393
-0.000204252
-0.000204088
-0.000203851
-0.000203589
-0.000203278
-0.000202937
-0.000201528
-0.000199648
-0.000195315
-0.00019001
-0.000179141
-0.000168209
-0.000153203
-0.00014789
-0.000170514
-0.000170491
-0.000170419
-0.000170321
-0.000170241
-0.000170148
-0.000168164
-0.000161566
-0.000146586
-0.000132182
-0.00014203
-0.000142023
-0.000142006
-0.000141974
-0.000141931
-0.000141869
-0.000141796
-0.000141688
-0.000141569
-0.000141428
-0.000141274
-0.000140644
-0.000139794
-0.000137831
-0.000135407
-0.000130296
-0.000125045
-0.00011762
-0.000114963
-0.000115814
-0.000115781
-0.000115687
-0.000115522
-0.000115273
-0.00011495
-0.000113768
-0.000110805
-0.000103903
-9.70351e-05
-9.05164e-05
-9.05118e-05
-9.04952e-05
-9.04709e-05
-9.04347e-05
-9.0399e-05
-9.03517e-05
-9.03255e-05
-9.02886e-05
-9.02558e-05
-9.02177e-05
-8.98438e-05
-8.94366e-05
-8.85029e-05
-8.74211e-05
-8.51668e-05
-8.28445e-05
-7.9499e-05
-7.83012e-05
-6.69875e-05
-6.69782e-05
-6.69434e-05
-6.68761e-05
-6.67519e-05
-6.65929e-05
-6.60586e-05
-6.48038e-05
-6.20157e-05
-5.92106e-05
-4.3922e-05
-4.39169e-05
-4.39075e-05
-4.38918e-05