# vtk DataFile Version 2.0
./vtk
ASCII

DATASET UNSTRUCTURED_GRID
POINTS 889 double
0 0 0.0
0.5 0 0.0
1 0 0.0
1.5 0 0.0
2 0 0.0
2.5 0 0.0
3 0 0.0
3.5 0 0.0
4 0 0.0
4.5 0 0.0
5 0 0.0
6.9457 0 0.0
8.8914 0 0.0
12.3514 0 0.0
15.8114 0 0.0
21.9642 0 0.0
28.1171 0 0.0
39.0585 0 0.0
50 0 0.0
0 -0.5 0.0
1 -0.5 0.0
2 -0.5 0.0
3 -0.5 0.0
4 -0.5 0.0
5 -0.5 0.0
8.8914 -0.5 0.0
15.8114 -0.5 0.0
28.1171 -0.5 0.0
50 -0.5 0.0
0 -1 0.0
0.5 -1 0.0
1 -1 0.0
1.5 -1 0.0
2 -1 0.0
2.5 -1 0.0
3 -1 0.0
3.5 -1 0.0
4 -1 0.0
4.5 -1 0.0
5 -1 0.0
6.9457 -1 0.0
8.8914 -1 0.0
12.3514 -1 0.0
15.8114 -1 0.0
21.9642 -1 0.0
28.1171 -1 0.0
39.0585 -1 0.0
50 -1 0.0
0 -1.5 0.0
1 -1.5 0.0
2 -1.5 0.0
3 -1.5 0.0
4 -1.5 0.0
5 -1.5 0.0
8.8914 -1.5 0.0
15.8114 -1.5 0.0
28.1171 -1.5 0.0
50 -1.5 0.0
0 -2 0.0
0.5 -2 0.0
1 -2 0.0
1.5 -2 0.0
2 -2 0.0
2.5 -2 0.0
3 -2 0.0
3.5 -2 0.0
4 -2 0.0
4.5 -2 0.0
5 -2 0.0
6.9457 -2 0.0
8.8914 -2 0.0
12.3514 -2 0.0
15.8114 -2 0.0
21.9642 -2 0.0
28.1171 -2 0.0
39.0585 -2 0.0
50 -2 0.0
0 -2.5 0.0
1 -2.5 0.0
2 -2.5 0.0
3 -2.5 0.0
4 -2.5 0.0
5 -2.5 0.0
8.8914 -2.5 0.0
15.8114 -2.5 0.0
28.1171 -2.5 0.0
50 -2.5 0.0
0 -3 0.0
0.5 -3 0.0
1 -3 0.0
1.5 -3 0.0
2 -3 0.0
2.5 -3 0.0
3 -3 0.0
3.5 -3 0.0
4 -3 0.0
4.5 -3 0.0
5 -3 0.0
6.9457 -3 0.0
8.8914 -3 0.0
12.3514 -3 0.0
15.8114 -3 0.0
21.9642 -3 0.0
28.1171 -3 0.0
39.0585 -3 0.0
50 -3 0.0
0 -3.5 0.0
1 -3.5 0.0
2 -3.5 0.0
3 -3.5 0.0
4 -3.5 0.0
5 -3.5 0.0
8.8914 -3.5 0.0
15.8114 -3.5 0.0
28.1171 -3.5 0.0
50 -3.5 0.0
0 -4 0.0
0.5 -4 0.0
1 -4 0.0
1.5 -4 0.0
2 -4 0.0
2.5 -4 0.0
3 -4 0.0
3.5 -4 0.0
4 -4 0.0
4.5 -4 0.0
5 -4 0.0
6.9457 -4 0.0
8.8914 -4 0.0
12.3514 -4 0.0
15.8114 -4 0.0
21.9642 -4 0.0
28.1171 -4 0.0
39.0585 -4 0.0
50 -4 0.0
0 -4.5 0.0
1 -4.5 0.0
2 -4.5 0.0
3 -4.5 0.0
4 -4.5 0.0
5 -4.5 0.0
8.8914 -4.5 0.0
15.8114 -4.5 0.0
28.1171 -4.5 0.0
50 -4.5 0.0
0 -5 0.0
0.5 -5 0.0
1 -5 0.0
1.5 -5 0.0
2 -5 0.0
2.5 -5 0.0
3 -5 0.0
3.5 -5 0.0
4 -5 0.0
4.5 -5 0.0
5 -5 0.0
6.9457 -5 0.0
8.8914 -5 0.0
12.3514 -5 0.0
15.8114 -5 0.0
21.9642 -5 0.0
28.1171 -5 0.0
39.0585 -5 0.0
50 -5 0.0
0 -5.5 0.0
1 -5.5 0.0
2 -5.5 0.0
3 -5.5 0.0
4 -5.5 0.0
5 -5.5 0.0
8.8914 -5.5 0.0
15.8114 -5.5 0.0
28.1171 -5.5 0.0
50 -5.5 0.0
0 -6 0.0
0.5 -6 0.0
1 -6 0.0
1.5 -6 0.0
2 -6 0.0
2.5 -6 0.0
3 -6 0.0
3.5 -6 0.0
4 -6 0.0
4.5 -6 0.0
5 -6 0.0
6.9457 -6 0.0
8.8914 -6 0.0
12.3514 -6 0.0
15.8114 -6 0.0
21.9642 -6 0.0
28.1171 -6 0.0
39.0585 -6 0.0
50 -6 0.0
0 -6.5 0.0
1 -6.5 0.0
2 -6.5 0.0
3 -6.5 0.0
4 -6.5 0.0
5 -6.5 0.0
8.8914 -6.5 0.0
15.8114 -6.5 0.0
28.1171 -6.5 0.0
50 -6.5 0.0
0 -7 0.0
0.5 -7 0.0
1 -7 0.0
1.5 -7 0.0
2 -7 0.0
2.5 -7 0.0
3 -7 0.0
3.5 -7 0.0
4 -7 0.0
4.5 -7 0.0
5 -7 0.0
6.9457 -7 0.0
8.8914 -7 0.0
12.3514 -7 0.0
15.8114 -7 0.0
21.9642 -7 0.0
28.1171 -7 0.0
39.0585 -7 0.0
50 -7 0.0
0 -7.5 0.0
1 -7.5 0.0
2 -7.5 0.0
3 -7.5 0.0
4 -7.5 0.0
5 -7.5 0.0
8.8914 -7.5 0.0
15.8114 -7.5 0.0
28.1171 -7.5 0.0
50 -7.5 0.0
0 -8 0.0
0.5 -8 0.0
1 -8 0.0
1.5 -8 0.0
2 -8 0.0
2.5 -8 0.0
3 -8 0.0
3.5 -8 0.0
4 -8 0.0
4.5 -8 0.0
5 -8 0.0
6.9457 -8 0.0
8.8914 -8 0.0
12.3514 -8 0.0
15.8114 -8 0.0
21.9642 -8 0.0
28.1171 -8 0.0
39.0585 -8 0.0
50 -8 0.0
0 -8.5 0.0
1 -8.5 0.0
2 -8.5 0.0
3 -8.5 0.0
4 -8.5 0.0
5 -8.5 0.0
8.8914 -8.5 0.0
15.8114 -8.5 0.0
28.1171 -8.5 0.0
50 -8.5 0.0
0 -9 0.0
0.5 -9 0.0
1 -9 0.0
1.5 -9 0.0
2 -9 0.0
2.5 -9 0.0
3 -9 0.0
3.5 -9 0.0
4 -9 0.0
4.5 -9 0.0
5 -9 0.0
6.9457 -9 0.0
8.8914 -9 0.0
12.3514 -9 0.0
15.8114 -9 0.0
21.9642 -9 0.0
28.1171 -9 0.0
39.0585 -9 0.0
50 -9 0.0
0 -9.5 0.0
1 -9.5 0.0
2 -9.5 0.0
3 -9.5 0.0
4 -9.5 0.0
5 -9.5 0.0
8.8914 -9.5 0.0
15.8114 -9.5 0.0
28.1171 -9.5 0.0
50 -9.5 0.0
0 -10 0.0
0.5 -10 0.0
1 -10 0.0
1.5 -10 0.0
2 -10 0.0
2.5 -10 0.0
3 -10 0.0
3.5 -10 0.0
4 -10 0.0
4.5 -10 0.0
5 -10 0.0
6.9457 -10 0.0
8.8914 -10 0.0
12.3514 -10 0.0
15.8114 -10 0.0
21.9642 -10 0.0
28.1171 -10 0.0
39.0585 -10 0.0
50 -10 0.0
0 -10.5 0.0
1 -10.5 0.0
2 -10.5 0.0
3 -10.5 0.0
4 -10.5 0.0
5 -10.5 0.0
8.8914 -10.5 0.0
15.8114 -10.5 0.0
28.1171 -10.5 0.0
50 -10.5 0.0
0 -11 0.0
0.5 -11 0.0
1 -11 0.0
1.5 -11 0.0
2 -11 0.0
2.5 -11 0.0
3 -11 0.0
3.5 -11 0.0
4 -11 0.0
4.5 -11 0.0
5 -11 0.0
6.9457 -11 0.0
8.8914 -11 0.0
12.3514 -11 0.0
15.8114 -11 0.0
21.9642 -11 0.0
28.1171 -11 0.0
39.0585 -11 0.0
50 -11 0.0
0 -11.5 0.0
1 -11.5 0.0
2 -11.5 0.0
3 -11.5 0.0
4 -11.5 0.0
5 -11.5 0.0
8.8914 -11.5 0.0
15.8114 -11.5 0.0
28.1171 -11.5 0.0
50 -11.5 0.0
0 -12 0.0
0.5 -12 0.0
1 -12 0.0
1.5 -12 0.0
2 -12 0.0
2.5 -12 0.0
3 -12 0.0
3.5 -12 0.0
4 -12 0.0
4.5 -12 0.0
5 -12 0.0
6.9457 -12 0.0
8.8914 -12 0.0
12.3514 -12 0.0
15.8114 -12 0.0
21.9642 -12 0.0
28.1171 -12 0.0
39.0585 -12 0.0
50 -12 0.0
0 -12.5 0.0
1 -12.5 0.0
2 -12.5 0.0
3 -12.5 0.0
4 -12.5 0.0
5 -12.5 0.0
8.8914 -12.5 0.0
15.8114 -12.5 0.0
28.1171 -12.5 0.0
50 -12.5 0.0
0 -13 0.0
0.5 -13 0.0
1 -13 0.0
1.5 -13 0.0
2 -13 0.0
2.5 -13 0.0
3 -13 0.0
3.5 -13 0.0
4 -13 0.0
4.5 -13 0.0
5 -13 0.0
6.9457 -13 0.0
8.8914 -13 0.0
12.3514 -13 0.0
15.8114 -13 0.0
21.9642 -13 0.0
28.1171 -13 0.0
39.0585 -13 0.0
50 -13 0.0
0 -13.5 0.0
1 -13.5 0.0
2 -13.5 0.0
3 -13.5 0.0
4 -13.5 0.0
5 -13.5 0.0
8.8914 -13.5 0.0
15.8114 -13.5 0.0
28.1171 -13.5 0.0
50 -13.5 0.0
0 -14 0.0
0.5 -14 0.0
1 -14 0.0
1.5 -14 0.0
2 -14 0.0
2.5 -14 0.0
3 -14 0.0
3.5 -14 0.0
4 -14 0.0
4.5 -14 0.0
5 -14 0.0
6.9457 -14 0.0
8.8914 -14 0.0
12.3514 -14 0.0
15.8114 -14 0.0
21.9642 -14 0.0
28.1171 -14 0.0
39.0585 -14 0.0
50 -14 0.0
0 -14.5 0.0
1 -14.5 0.0
2 -14.5 0.0
3 -14.5 0.0
4 -14.5 0.0
5 -14.5 0.0
8.8914 -14.5 0.0
15.8114 -14.5 0.0
28.1171 -14.5 0.0
50 -14.5 0.0
0 -15 0.0
0.5 -15 0.0
1 -15 0.0
1.5 -15 0.0
2 -15 0.0
2.5 -15 0.0
3 -15 0.0
3.5 -15 0.0
4 -15 0.0
4.5 -15 0.0
5 -15 0.0
6.9457 -15 0.0
8.8914 -15 0.0
12.3514 -15 0.0
15.8114 -15 0.0
21.9642 -15 0.0
28.1171 -15 0.0
39.0585 -15 0.0
50 -15 0.0
0 -16.5 0.0
1 -16.5 0.0
2 -16.5 0.0
3 -16.5 0.0
4 -16.5 0.0
5 -16.5 0.0
8.8914 -16.5 0.0
15.8114 -16.5 0.0
28.1171 -16.5 0.0
50 -16.5 0.0
0 -18 0.0
0.5 -18 0.0
1 -18 0.0
1.5 -18 0.0
2 -18 0.0
2.5 -18 0.0
3 -18 0.0
3.5 -18 0.0
4 -18 0.0
4.5 -18 0.0
5 -18 0.0
6.9457 -18 0.0
8.8914 -18 0.0
12.3514 -18 0.0
15.8114 -18 0.0
21.9642 -18 0.0
28.1171 -18 0.0
39.0585 -18 0.0
50 -18 0.0
0 -19.5 0.0
1 -19.5 0.0
2 -19.5 0.0
3 -19.5 0.0
4 -19.5 0.0
5 -19.5 0.0
8.8914 -19.5 0.0
15.8114 -19.5 0.0
28.1171 -19.5 0.0
50 -19.5 0.0
0 -21 0.0
0.5 -21 0.0
1 -21 0.0
1.5 -21 0.0
2 -21 0.0
2.5 -21 0.0
3 -21 0.0
3.5 -21 0.0
4 -21 0.0
4.5 -21 0.0
5 -21 0.0
6.9457 -21 0.0
8.8914 -21 0.0
12.3514 -21 0.0
15.8114 -21 0.0
21.9642 -21 0.0
28.1171 -21 0.0
39.0585 -21 0.0
50 -21 0.0
0 -22.5 0.0
1 -22.5 0.0
2 -22.5 0.0
3 -22.5 0.0
4 -22.5 0.0
5 -22.5 0.0
8.8914 -22.5 0.0
15.8114 -22.5 0.0
28.1171 -22.5 0.0
50 -22.5 0.0
0 -24 0.0
0.5 -24 0.0
1 -24 0.0
1.5 -24 0.0
2 -24 0.0
2.5 -24 0.0
3 -24 0.0
3.5 -24 0.0
4 -24 0.0
4.5 -24 0.0
5 -24 0.0
6.9457 -24 0.0
8.8914 -24 0.0
12.3514 -24 0.0
15.8114 -24 0.0
21.9642 -24 0.0
28.1171 -24 0.0
39.0585 -24 0.0
50 -24 0.0
0 -25.5 0.0
1 -25.5 0.0
2 -25.5 0.0
3 -25.5 0.0
4 -25.5 0.0
5 -25.5 0.0
8.8914 -25.5 0.0
15.8114 -25.5 0.0
28.1171 -25.5 0.0
50 -25.5 0.0
0 -27 0.0
0.5 -27 0.0
1 -27 0.0
1.5 -27 0.0
2 -27 0.0
2.5 -27 0.0
3 -27 0.0
3.5 -27 0.0
4 -27 0.0
4.5 -27 0.0
5 -27 0.0
6.9457 -27 0.0
8.8914 -27 0.0
12.3514 -27 0.0
15.8114 -27 0.0
21.9642 -27 0.0
28.1171 -27 0.0
39.0585 -27 0.0
50 -27 0.0
0 -28.5 0.0
1 -28.5 0.0
2 -28.5 0.0
3 -28.5 0.0
4 -28.5 0.0
5 -28.5 0.0
8.8914 -28.5 0.0
15.8114 -28.5 0.0
28.1171 -28.5 0.0
50 -28.5 0.0
0 -30 0.0
0.5 -30 0.0
1 -30 0.0
1.5 -30 0.0
2 -30 0.0
2.5 -30 0.0
3 -30 0.0
3.5 -30 0.0
4 -30 0.0
4.5 -30 0.0
5 -30 0.0
6.9457 -30 0.0
8.8914 -30 0.0
12.3514 -30 0.0
15.8114 -30 0.0
21.9642 -30 0.0
28.1171 -30 0.0
39.0585 -30 0.0
50 -30 0.0
0 -31.5 0.0
1 -31.5 0.0
2 -31.5 0.0
3 -31.5 0.0
4 -31.5 0.0
5 -31.5 0.0
8.8914 -31.5 0.0
15.8114 -31.5 0.0
28.1171 -31.5 0.0
50 -31.5 0.0
0 -33 0.0
0.5 -33 0.0
1 -33 0.0
1.5 -33 0.0
2 -33 0.0
2.5 -33 0.0
3 -33 0.0
3.5 -33 0.0
4 -33 0.0
4.5 -33 0.0
5 -33 0.0
6.9457 -33 0.0
8.8914 -33 0.0
12.3514 -33 0.0
15.8114 -33 0.0
21.9642 -33 0.0
28.1171 -33 0.0
39.0585 -33 0.0
50 -33 0.0
0 -34.5 0.0
1 -34.5 0.0
2 -34.5 0.0
3 -34.5 0.0
4 -34.5 0.0
5 -34.5 0.0
8.8914 -34.5 0.0
15.8114 -34.5 0.0
28.1171 -34.5 0.0
50 -34.5 0.0
0 -36 0.0
0.5 -36 0.0
1 -36 0.0
1.5 -36 0.0
2 -36 0.0
2.5 -36 0.0
3 -36 0.0
3.5 -36 0.0
4 -36 0.0
4.5 -36 0.0
5 -36 0.0
6.9457 -36 0.0
8.8914 -36 0.0
12.3514 -36 0.0
15.8114 -36 0.0
21.9642 -36 0.0
28.1171 -36 0.0
39.0585 -36 0.0
50 -36 0.0
0 -37.5 0.0
1 -37.5 0.0
2 -37.5 0.0
3 -37.5 0.0
4 -37.5 0.0
5 -37.5 0.0
8.8914 -37.5 0.0
15.8114 -37.5 0.0
28.1171 -37.5 0.0
50 -37.5 0.0
0 -39 0.0
0.5 -39 0.0
1 -39 0.0
1.5 -39 0.0
2 -39 0.0
2.5 -39 0.0
3 -39 0.0
3.5 -39 0.0
4 -39 0.0
4.5 -39 0.0
5 -39 0.0
6.9457 -39 0.0
8.8914 -39 0.0
12.3514 -39 0.0
15.8114 -39 0.0
21.9642 -39 0.0
28.1171 -39 0.0
39.0585 -39 0.0
50 -39 0.0
0 -40.5 0.0
1 -40.5 0.0
2 -40.5 0.0
3 -40.5 0.0
4 -40.5 0.0
5 -40.5 0.0
8.8914 -40.5 0.0
15.8114 -40.5 0.0
28.1171 -40.5 0.0
50 -40.5 0.0
0 -42 0.0
0.5 -42 0.0
1 -42 0.0
1.5 -42 0.0
2 -42 0.0
2.5 -42 0.0
3 -42 0.0
3.5 -42 0.0
4 -42 0.0
4.5 -42 0.0
5 -42 0.0
6.9457 -42 0.0
8.8914 -42 0.0
12.3514 -42 0.0
15.8114 -42 0.0
21.9642 -42 0.0
28.1171 -42 0.0
39.0585 -42 0.0
50 -42 0.0
0 -43.5 0.0
1 -43.5 0.0
2 -43.5 0.0
3 -43.5 0.0
4 -43.5 0.0
5 -43.5 0.0
8.8914 -43.5 0.0
15.8114 -43.5 0.0
28.1171 -43.5 0.0
50 -43.5 0.0
0 -45 0.0
0.5 -45 0.0
1 -45 0.0
1.5 -45 0.0
2 -45 0.0
2.5 -45 0.0
3 -45 0.0
3.5 -45 0.0
4 -45 0.0
4.5 -45 0.0
5 -45 0.0
6.9457 -45 0.0
8.8914 -45 0.0
12.3514 -45 0.0
15.8114 -45 0.0
21.9642 -45 0.0
28.1171 -45 0.0
39.0585 -45 0.0
50 -45 0.0
0 -50.5 0.0
1 -50.5 0.0
2 -50.5 0.0
3 -50.5 0.0
4 -50.5 0.0
5 -50.5 0.0
8.8914 -50.5 0.0
15.8114 -50.5 0.0
28.1171 -50.5 0.0
50 -50.5 0.0
0 -56 0.0
0.5 -56 0.0
1 -56 0.0
1.5 -56 0.0
2 -56 0.0
2.5 -56 0.0
3 -56 0.0
3.5 -56 0.0
4 -56 0.0
4.5 -56 0.0
5 -56 0.0
6.9457 -56 0.0
8.8914 -56 0.0
12.3514 -56 0.0
15.8114 -56 0.0
21.9642 -56 0.0
28.1171 -56 0.0
39.0585 -56 0.0
50 -56 0.0
0 -61.5 0.0
1 -61.5 0.0
2 -61.5 0.0
3 -61.5 0.0
4 -61.5 0.0
5 -61.5 0.0
8.8914 -61.5 0.0
15.8114 -61.5 0.0
28.1171 -61.5 0.0
[...]
POINT_DATA 889
SCALARS Displacement_R double 1
LOOKUP_TABLE default
0
-4.17657e-06
-8.31062e-06
-1.23626e-05
-1.62922e-05
-2.00721e-05
-2.36649e-05
-2.70678e-05
-3.01961e-05
-3.29446e-05
-3.53117e-05
-4.08177e-05
-4.30251e-05
-4.19034e-05
-3.80198e-05
-2.89946e-05
-2.01971e-05
-9.5816e-06
0
0
-5.84991e-06
-1.14466e-05
-1.65345e-05
-2.08183e-05
-2.42608e-05
-3.12876e-05
-2.80215e-05
-1.49459e-05
0
0
-1.81472e-06
-3.60422e-06
-5.34922e-06
-7.02187e-06
-8.59966e-06
-1.00514e-05
-1.13717e-05
-1.25363e-05
-1.35382e-05
-1.46222e-05
-1.83101e-05
-1.99768e-05
-1.98644e-05
-1.8154e-05
-1.38496e-05
-9.69789e-06
-4.57961e-06
0
0
-1.51151e-06
-2.91045e-06
-4.09142e-06
-5.00996e-06
-5.94063e-06
-9.08198e-06
-8.3874e-06
-4.42264e-06
0
0
2.4625e-07
4.96225e-07
7.49927e-07
1.01359e-06
1.28993e-06
1.57239e-06
1.84727e-06
2.08381e-06
2.24496e-06
2.31955e-06
2.02339e-06
1.64877e-06
1.46088e-06
1.33931e-06
1.1191e-06
8.51607e-07
3.81896e-07
0
0
2.488e-06
4.90416e-06
7.15719e-06
9.10307e-06
1.05419e-05
1.23758e-05
1.10656e-05
6.12719e-06
0
0
2.28484e-06
4.5463e-06
6.76492e-06
8.91611e-06
1.09799e-05
1.29286e-05
1.47298e-05
1.63578e-05
1.7795e-05
1.90335e-05
2.21514e-05
2.32592e-05
2.27935e-05
2.08364e-05
1.60942e-05
1.14052e-05
5.34389e-06
0
0
6.75358e-06
1.32249e-05
1.91262e-05
2.41849e-05
2.8155e-05
3.45509e-05
3.07176e-05
1.6659e-05
0
0
4.62406e-06
9.19708e-06
1.36764e-05
1.80089e-05
2.21417e-05
2.60279e-05
2.96111e-05
3.28747e-05
3.57785e-05
3.82941e-05
4.41615e-05
4.63256e-05
4.48387e-05
4.07258e-05
3.12566e-05
2.19183e-05
1.03471e-05
0.0115477
0
1.06198e-05
2.08386e-05
3.0255e-05
3.84979e-05
4.52358e-05
5.87206e-05
5.83224e-05
3.86454e-05
-0.021745
0
5.92471e-06
1.17946e-05
1.75664e-05
2.31809e-05
2.85997e-05
3.377e-05
3.86359e-05
4.31516e-05
4.73335e-05
5.11402e-05
6.26441e-05
6.94917e-05
7.44674e-05
7.39101e-05
6.60579e-05
5.3686e-05
2.88646e-05
0.0110656
0
1.27458e-05
2.50895e-05
3.66434e-05
4.70691e-05
5.61458e-05
7.87505e-05
8.76784e-05
6.71288e-05
0
0
6.77782e-06
1.35025e-05
2.01321e-05
2.66144e-05
3.29078e-05
3.89651e-05
4.47479e-05
5.02359e-05
5.53963e-05
6.02372e-05
7.57633e-05
8.64956e-05
9.68889e-05
9.95417e-05
9.32796e-05
7.87956e-05
4.39444e-05
0
0
1.40778e-05
2.77816e-05
4.07576e-05
5.27173e-05
6.34663e-05
9.28412e-05
0.000109582
8.88884e-05
0
0
7.26824e-06
1.44885e-05
2.16216e-05
2.86201e-05
3.54475e-05
4.20645e-05
4.84416e-05
5.45507e-05
6.03706e-05
6.58884e-05
8.42076e-05
9.77908e-05
0.000112447
0.000117776
0.00011313
9.71812e-05
5.48718e-05
0
0
1.47441e-05
2.91527e-05
4.29138e-05
5.57712e-05
6.7538e-05
0.000101466
0.000124206
0.000103901
0
0
7.44871e-06
1.48547e-05
2.21836e-05
2.93941e-05
3.64526e-05
4.3326e-05
4.99859e-05
5.64076e-05
6.25698e-05
6.84582e-05
8.84208e-05
0.000103847
0.000121451
0.000128839
0.000125666
0.000108822
6.15762e-05
0
0
1.48258e-05
2.93567e-05
4.33185e-05
5.64806e-05
6.86668e-05
0.000105034
0.00013176
0.00011217
0
0
7.34979e-06
1.46624e-05
2.19078e-05
2.90498e-05
3.60589e-05
4.29053e-05
4.95636e-05
5.60108e-05
6.22277e-05
6.81977e-05
8.87291e-05
0.000105015
0.000124225
0.000132925
0.000130945
0.000113734
6.41047e-05
0
0
1.43684e-05
2.84808e-05
4.20971e-05
5.50117e-05
6.70614e-05
0.000103863
0.000132452
0.000113728
0
0
6.98925e-06
1.39464e-05
2.08456e-05
2.76553e-05
3.43499e-05
4.09032e-05
4.72923e-05
5.34963e-05
5.94978e-05
6.52812e-05
8.53673e-05
0.000101572
0.000121058
0.000130271
0.000129021
0.000111963
6.25361e-05
0
0
1.33983e-05
2.65769e-05
3.93286e-05
5.14729e-05
6.28629e-05
9.8193e-05
0.000126507
0.000108677
0
0
6.37642e-06
1.27256e-05
1.90254e-05
2.52491e-05
3.13748e-05
3.73797e-05
4.32441e-05
4.89496e-05
5.44804e-05
5.9822e-05
7.84963e-05
9.37249e-05
0.000112205
0.00012109
0.000120048
0.000103671
5.70834e-05
0
0
1.19284e-05
2.36725e-05
3.50572e-05
4.5929e-05
5.61596e-05
8.82023e-05
0.000114146
9.7185e-05
0
0
5.51541e-06
1.10083e-05
1.64607e-05
2.18501e-05
2.71587e-05
3.2367e-05
3.74586e-05
4.24181e-05
4.72316e-05
5.1887e-05
6.8227e-05
8.16226e-05
9.7851e-05
0.000105564
0.000104131
8.90178e-05
4.79568e-05
0.00613603
0
9.96444e-06
1.97804e-05
2.9306e-05
3.84151e-05
4.70016e-05
7.40024e-05
9.54787e-05
7.94626e-05
-0.012209
0
4.40829e-06
8.799e-06
1.31581e-05
1.74679e-05
2.17145e-05
2.58823e-05
2.99576e-05
3.39277e-05
3.77834e-05
4.15131e-05
5.4617e-05
6.53431e-05
7.8089e-05
8.37797e-05
8.14058e-05
6.83199e-05
3.53975e-05
0.0207582
0
7.51117e-06
1.49112e-05
2.20928e-05
2.89591e-05
3.54249e-05
5.56513e-05
7.06136e-05
5.58076e-05
-0.0271365
0
3.0588e-06
6.10532e-06
9.12918e-06
1.2118e-05
1.50613e-05
1.79484e-05
2.0769e-05
2.35136e-05
2.61757e-05
2.87454e-05
3.77013e-05
4.4933e-05
5.29894e-05
5.58353e-05
5.20695e-05
4.18272e-05
1.99949e-05
0.03214
0
4.58248e-06
9.09066e-06
1.34512e-05
1.75961e-05
2.14626e-05
3.3163e-05
3.9635e-05
2.65203e-05
-0.0284631
0
1.48098e-06
2.95394e-06
4.41192e-06
5.84749e-06
7.25333e-06
8.62321e-06
9.95058e-06
1.123e-05
1.24543e-05
1.36192e-05
1.75115e-05
2.03374e-05
2.25741e-05
2.18172e-05
1.62649e-05
9.85403e-06
2.21998e-06
0.0179947
0
2.80056e-06
5.55221e-06
8.20762e-06
1.07233e-05
1.30618e-05
2.00072e-05
2.29327e-05
1.23019e-05
0
0
1.3259e-06
2.64651e-06
3.95723e-06
5.25297e-06
6.52874e-06
7.78041e-06
9.00305e-06
1.01932e-05
1.13469e-05
1.24613e-05
1.63442e-05
1.94484e-05
2.26682e-05
2.33216e-05
2.00035e-05
1.41042e-05
5.24053e-06
0
0
2.49619e-06
4.95886e-06
7.35537e-06
9.65518e-06
1.18294e-05
1.8702e-05
2.33567e-05
1.54488e-05
0
0
1.17502e-06
2.34625e-06
3.51047e-06
4.66402e-06
5.80336e-06
6.92537e-06
8.02637e-06
9.10374e-06
1.01544e-05
1.11755e-05
1.48274e-05
1.7874e-05
2.15048e-05
2.30011e-05
2.12317e-05
1.63131e-05
7.10006e-06
0
0
2.20068e-06
4.37699e-06
6.50499e-06
8.56208e-06
1.05276e-05
1.69736e-05
2.24176e-05
1.68438e-05
0
0
1.03074e-06
2.05868e-06
3.08149e-06
4.09639e-06
5.10088e-06
6.09248e-06
7.06869e-06
8.02731e-06
8.9654e-06
9.88153e-06
1.31994e-05
1.60518e-05
1.97343e-05
2.16403e-05
2.09826e-05
1.70353e-05
8.07848e-06
0
0
1.92242e-06
3.82659e-06
5.69447e-06
7.50871e-06
9.25338e-06
1.51202e-05
2.07498e-05
1.70197e-05
0
0
8.96788e-07
1.79145e-06
2.68222e-06
3.56698e-06
4.44382e-06
5.31084e-06
6.1662e-06
7.00808e-06
7.83455e-06
8.6441e-06
1.16031e-05
1.41997e-05
1.77219e-05
1.9779e-05
1.98688e-05
1.67759e-05
8.41019e-06
0
0
1.66706e-06
3.32014e-06
4.94544e-06
6.52956e-06
8.05989e-06
1.32986e-05
1.87615e-05
1.64123e-05
0
0
7.75221e-07
1.54881e-06
2.31939e-06
3.08533e-06
3.84517e-06
4.59741e-06
5.34061e-06
6.07337e-06
6.79426e-06
7.50202e-06
1.01067e-05
1.2426e-05
1.56799e-05
1.77283e-05
1.82902e-05
1.5904e-05
8.29142e-06
0
0
1.43732e-06
2.86379e-06
4.26864e-06
5.64144e-06
6.9722e-06
1.15877e-05
1.66889e-05
1.53349e-05
0
0
6.66704e-07
1.33213e-06
1.99521e-06
2.65466e-06
3.30934e-06
3.95808e-06
4.59972e-06
5.23318e-06
5.85737e-06
6.47122e-06
8.74193e-06
1.07859e-05
1.37237e-05
1.56698e-05
1.65041e-05
1.4682e-05
7.878e-06
0
0
1.23348e-06
2.45843e-06
3.66637e-06
4.84908e-06
5.99857e-06
1.00247e-05
1.46683e-05
1.40067e-05
0
0
5.70953e-07
1.1409e-06
1.70899e-06
2.27421e-06
2.83566e-06
3.39241e-06
3.94354e-06
4.48816e-06
5.02549e-06
5.5546e-06
7.51964e-06
9.30309e-06
1.19128e-05
1.37057e-05
1.46729e-05
1.32908e-05
7.2884e-06
0
0
1.05441e-06
2.10206e-06
3.13621e-06
4.15028e-06
5.13785e-06
8.62321e-06
1.27743e-05
1.2577e-05
0
0
4.8718e-07
9.73551e-07
1.45845e-06
1.94106e-06
2.42067e-06
2.89653e-06
3.36792e-06
3.83415e-06
4.2945e-06
4.74831e-06
6.4385e-06
7.98267e-06
1.02736e-05
1.18904e-05
1.2896e-05
1.1852e-05
6.60931e-06
0
0
8.98237e-07
1.79104e-06
2.673e-06
3.53886e-06
4.38356e-06
7.38235e-06
1.10447e-05
1.11436e-05
0
0
4.14371e-07
8.28096e-07
1.24065e-06
1.65134e-06
2.05962e-06
2.46485e-06
2.86644e-06
3.2638e-06
3.6565e-06
4.04381e-06
5.49134e-06
6.81899e-06
8.81301e-06
1.02492e-05
1.12306e-05
1.04432e-05
5.902e-06
0
0
7.62926e-07
1.52154e-06
2.27148e-06
3.00845e-06
3.728e-06
6.29553e-06
9.49394e-06
9.76442e-06
0
0
3.51363e-07
7.02214e-07
1.05207e-06
1.40048e-06
1.74691e-06
2.09098e-06
2.43212e-06
2.76998e-06
3.10405e-06
3.43396e-06
4.66671e-06
5.80586e-06
7.52193e-06
8.78948e-06
9.71092e-06
9.10498e-06
5.20952e-06
0
0
5.18072e-07
1.03343e-06
1.54336e-06
2.04518e-06
2.53628e-06
4.30091e-06
6.56596e-06
6.98603e-06
0
0
1.88646e-07
3.77056e-07
5.64997e-07
7.52261e-07
9.38565e-07
1.12375e-06
1.30751e-06
1.48971e-06
1.67001e-06
1.84833e-06
2.51783e-06
3.14257e-06
4.10229e-06
4.84142e-06
5.44869e-06
5.24485e-06
3.05608e-06
0
0
2.75641e-07
5.49957e-07
8.21636e-07
1.08939e-06
1.35196e-06
2.30174e-06
3.55399e-06
3.89588e-06
0
0
9.98698e-08
1.99619e-07
2.99139e-07
3.98319e-07
4.97025e-07
5.95169e-07
6.92603e-07
7.89257e-07
8.84953e-07
9.79655e-07
1.33594e-06
1.66949e-06
2.18683e-06
2.58988e-06
2.95184e-06
2.87341e-06
1.6869e-06
0
0
1.45723e-07
2.90778e-07
4.34498e-07
5.76228e-07
7.15335e-07
1.22032e-06
1.89697e-06
2.11079e-06
0
0
5.29735e-08
1.05887e-07
1.58684e-07
2.11308e-07
2.63692e-07
3.15792e-07
3.67533e-07
4.18877e-07
4.69734e-07
5.20086e-07
7.0987e-07
8.88097e-07
1.16447e-06
1.38199e-06
1.58307e-06
1.55001e-06
9.1416e-07
0
0
7.65716e-08
1.52803e-07
2.28354e-07
3.02889e-07
3.76088e-07
6.42172e-07
1.00197e-06
1.1237e-06
0
0
2.62242e-08
5.24166e-08
7.85545e-08
1.04603e-07
1.30539e-07
1.56327e-07
1.81947e-07
2.07362e-07
2.32542e-07
2.57462e-07
3.51728e-07
4.40008e-07
5.78422e-07
6.86902e-07
7.91821e-07
7.74148e-07
4.6045e-07
0
0
2.91358e-08
5.81431e-08
8.68976e-08
1.15277e-07
1.43175e-07
2.44462e-07
3.82461e-07
4.34054e-07
0
0
0
0
0
0
0
0
0
0
0
0
0
0
0
0
0
0
0
0
SCALARS Displacement_Z double 1
LOOKUP_TABLE default
0.000597363
0.000596718
0.000594769
0.00059155
0.000587071
0.000581364
0.000574457
0.0005664
0.000557104
0.000546565
0.000534114
0.000486995
0.00044026
0.000358675
0.00028424
0.000175345
9.59674e-05
1.16401e-05
-1.51415e-05
0.000600171
0.000597524
0.000589663
0.000576812
0.000559113
0.000536323
0.000441413
0.000284451
9.58634e-05
-1.53387e-05
0.000601771
0.000601093
0.00059908
0.00059574
0.0005911
0.000585185
0.000578029
0.000569676
0.000560156
0.00054941
0.000537768
0.00049026
0.000442242
0.000359748
0.000284617
0.000175278
9.57964e-05
1.13752e-05
-1.54778e-05
0.00060232
0.000599601
0.000591533
0.000578347
0.000560367
0.000538442
0.000442715
0.000284685
9.57512e-05
-1.55566e-05
0.000601907
0.00060122
0.000599174
0.00059578
0.000591067
0.000585068
0.000577835
0.000569435
0.000559955
0.000549517
0.000538361
0.000491283
0.00044283
0.000360058
0.000284702
0.000175246
9.57424e-05
1.12965e-05
-1.55774e-05
0.00060059
0.000597858
0.000589763
0.000576584
0.000558868
0.000537613
0.000442587
0.00028462
9.57547e-05
-1.5541e-05
0.000598329
0.000597647
0.000595619
0.000592255
0.000587591
0.000581667
0.000574552
0.000566323
0.000557092
0.000546985
0.000536132
0.000490002
0.000441978
0.000359566
0.00028449
0.000175237
9.58034e-05
1.14061e-05
-1.54465e-05
0.00059505
0.000592383
0.000584482
0.000571659
0.000554538
0.000533995
0.000441007
0.000284256
9.5874e-05
-1.52921e-05
0.000590582
0.000589934
0.000587978
0.000584748
0.00058026
0.000574579
0.000567755
0.000559878
0.000551051
0.000541401
0.000531089
0.00048642
0.000439696
0.000358309
0.000283979
0.000175264
9.59816e-05
1.17023e-05
-1.50794e-05
0.000574319
0.000571865
0.000564598
0.000552857
0.000537161
0.000518545
0.00043121
0.00027912
9.41625e-05
-1.47674e-05
0.000556836
0.000556258
0.000554533
0.00055168
0.000547728
0.000542726
0.000536732
0.000529819
0.000522092
0.000513622
0.000504648
0.000464378
0.000421505
0.00034473
0.000273617
0.000169193
9.23415e-05
1.17062e-05
-1.39934e-05
0.000538366
0.000536217
0.000529867
0.000519607
0.00050596
0.000489626
0.000410765
0.000267525
9.04846e-05
-1.28966e-05
0.000519112
0.000518614
0.000517114
0.000514638
0.000511207
0.000506867
0.000501662
0.000495675
0.000488952
0.000481577
0.000473667
0.000437839
0.000399075
0.000327753
0.000260896
0.000161949
8.86184e-05
1.26095e-05
-1.14154e-05
0.00049926
0.000497408
0.000491925
0.000483067
0.000471245
0.000456971
0.00038661
0.000253799
8.67168e-05
-9.69849e-06
0.000478977
0.000478551
0.000477262
0.000475135
0.000472186
0.000468454
0.000463977
0.000458807
0.000452994
0.000446591
0.000439679
0.000408116
0.000373467
0.000308146
0.000246281
0.000153726
8.48058e-05
1.42282e-05
-7.70243e-06
0.000458416
0.000456832
0.00045214
0.000444542
0.000434353
0.000421962
0.000359813
0.000238421
8.28772e-05
-5.55896e-06
0.000437723
0.000437361
0.000436262
0.000434449
0.000431931
0.000428742
0.000424909
0.000420472
0.00041547
0.000409946
0.000403952
0.000376409
0.000345749
0.000286701
0.000230264
0.000144761
8.09463e-05
1.63343e-05
-3.24726e-06
0.000417033
0.000415689
0.000411697
0.000405216
0.000396485
0.000385805
0.000331428
0.000221897
7.90029e-05
-8.76135e-07
0.000396482
0.000396176
0.000395245
0.000393709
0.000391572
0.000388863
0.000385599
0.000381814
0.000377536
0.000372801
0.000367645
0.000343825
0.000316953
0.000264212
0.000213371
0.000135298
7.70456e-05
1.87021e-05
1.56094e-06
0.000376194
0.000375059
0.000371684
0.000366188
0.000358753
0.000349613
0.000302462
0.000204772
7.50832e-05
3.98485e-06
0.000356298
0.000356042
0.000355258
0.000353963
0.00035216
0.000349872
0.00034711
0.000343901
0.000340266
0.000336233
0.00033183
0.000311406
0.000288062
0.000241463
0.000196155
0.000125622
7.3118e-05
2.10934e-05
6.36604e-06
0.000336915
0.000335962
0.000333124
0.00032849
0.000322199
0.000314428
0.000273878
0.000187606
7.11699e-05
8.67289e-06
0.000318168
0.000317954
0.000317297
0.000316212
0.000314699
0.000312776
0.000310452
0.000307747
0.000304676
0.000301262
0.000297524
0.00028014
0.000260013
0.000219216
0.000179182
0.000116034
6.9223e-05
2.32766e-05
1.08348e-05
0.000300177
0.000299382
0.000297006
0.000293117
0.000287818
0.000281244
0.000246587
0.000170965
6.7297e-05
1.28605e-05
0.000283067
0.000282889
0.00028234
0.000281433
0.000280167
0.000278557
0.000276606
0.000274333
0.000271747
0.000268866
0.000265704
0.000250973
0.000233698
0.0001982
0.000163005
0.000106807
6.53712e-05
2.50318e-05
1.46453e-05
0.000266955
0.00026629
0.000264302
0.00026104
0.000256579
0.000251022
0.000221456
0.000155385
6.34686e-05
1.62162e-05
0.000251966
0.000251818
0.000251357
0.000250596
0.000249533
0.00024818
0.000246538
0.000244622
0.000242436
0.000239999
0.000237316
0.000224808
0.000209962
0.000179108
0.00014816
9.82155e-05
6.15643e-05
2.61727e-05
1.74672e-05
0.00023822
0.000237659
0.00023598
0.00023322
0.000229436
0.000224701
0.000199324
0.000141409
5.96643e-05
1.84129e-05
0.00022584
0.000225713
0.00022532
0.000224671
0.000223764
0.000222608
0.000221205
0.000219565
0.000217693
0.0002156
0.000213299
0.000202538
0.00018964
0.000162635
0.00013519
9.05296e-05
5.7748e-05
2.65601e-05
1.89737e-05
0.000214946
0.000214459
0.000213004
0.000210611
0.000207328
0.000203211
0.000181016
0.000129572
5.58096e-05
1.9165e-05
0.000205656
0.00020554
0.000205194
0.000204619
0.000203818
0.000202794
0.000201555
0.000200105
0.000198453
0.000196605
0.000194571
0.000185053
0.00017355
0.000149454
0.000124618
8.39901e-05
5.38284e-05
2.60252e-05
1.8905e-05
0.000192279
0.000191884
0.000190702
0.000188757
0.000186083
0.000182729
0.000164316
0.000120472
5.37934e-05
1.88896e-05
0.000179892
0.000179804
0.000179548
0.00017912
0.000178526
0.000177763
0.00017684
0.000175755
0.000174517
0.000173127
0.000171592
0.000164351
0.000155395
0.000136388
0.000116042
8.10069e-05
5.36174e-05
2.67816e-05
1.90615e-05
0.0001684
0.000168101
0.00016721
0.00016574
0.000163711
0.000161151
0.000146873
0.000111564
5.33272e-05
1.93636e-05
0.000157737
0.000157671
0.000157475
0.000157149
0.000156695
0.000156113
0.000155406
0.000154575
0.000153625
0.000152558
0.000151379
0.000145763
0.000138748
0.000123658
0.000106993
7.72207e-05
5.28957e-05
2.75707e-05
1.97778e-05
0.000147838
0.000147608
0.000146922
0.000145788
0.000144219
0.000142234
0.000131041
0.000102512
5.23549e-05
2.02475e-05
0.000138647
0.000138596
0.000138444
0.000138191
0.000137838
0.000137386
0.000136836
0.00013619
0.000135449
0.000134616
0.000133694
0.000129291
0.000123754
0.000111686
9.80543e-05
7.29657e-05
5.16931e-05
2.82814e-05
2.0766e-05
0.000130109
0.000129929
0.000129393
0.000128505
0.000127276
0.000125718
0.000116865
9.37447e-05
5.09464e-05
2.12958e-05
0.000122176
0.000122136
0.000122017
0.000121818
0.000121541
0.000121185
0.000120753
0.000120244
0.000119661
0.000119004
0.000118275
0.000114791
0.000110382
0.000100679
8.95258e-05
6.85e-05
5.01044e-05
2.88369e-05
2.18264e-05
0.000114803
0.000114661
0.000114238
0.000113536
0.000112564
0.000111329
0.000104271
8.54802e-05
4.9203e-05
2.23383e-05
0.000107947
0.000107915
0.000107821
0.000107663
0.000107443
0.000107161
0.000106818
0.000106413
0.00010595
0.000105427
0.000104847
0.000102068
9.85339e-05
9.06957e-05
8.15617e-05
6.40063e-05
4.82308e-05
2.91943e-05
2.28172e-05
0.000101569
0.000101456
0.000101119
0.00010056
9.97838e-05
9.87978e-05
9.31347e-05
7.78221e-05
4.7222e-05
2.32584e-05
9.56312e-05
9.56058e-05
9.55303e-05
9.54043e-05
9.52285e-05
9.50029e-05
9.47283e-05
9.44049e-05
9.40337e-05
9.3615e-05
9.31502e-05
9.09188e-05
8.80707e-05
8.17148e-05
7.42254e-05
5.96054e-05
4.61631e-05
2.93345e-05
2.3645e-05
9.01003e-05
9.001e-05
8.97395e-05
8.92912e-05
8.86684e-05
8.78762e-05
8.33084e-05
7.0802e-05
4.50858e-05
2.39833e-05
8.4945e-05
8.49247e-05
8.48639e-05
8.47626e-05
8.46213e-05
8.44398e-05
8.42189e-05
8.39587e-05
8.36599e-05
8.33227e-05
8.29482e-05
8.11474e-05
7.88419e-05
7.36717e-05
6.75245e-05
5.5371e-05
4.39747e-05
2.92546e-05
2.42547e-05
8.01354e-05
8.00626e-05
7.98446e-05
7.94831e-05
7.89807e-05
7.8341e-05
7.46412e-05
6.44082e-05
4.28584e-05
2.4473e-05
7.5645e-05
7.56285e-05
7.55794e-05
7.54976e-05
7.53834e-05
7.52368e-05
7.50583e-05
7.48479e-05
7.46063e-05
7.43335e-05
7.40306e-05
7.25712e-05
7.06984e-05
6.64823e-05
6.1433e-05
5.13432e-05
4.17207e-05
2.89617e-05
2.46193e-05
7.1448e-05
7.13892e-05
7.12127e-05
7.092e-05
7.05129e-05
6.99942e-05
6.69878e-05
5.86042e-05
4.05867e-05
2.47119e-05
6.75219e-05
6.75087e-05
6.74689e-05
6.74026e-05
6.731e-05
6.71912e-05
6.70464e-05
6.68757e-05
6.66795e-05
6.64581e-05
6.62115e-05
6.5026e-05
6.35e-05
6.00547e-05
5.59071e-05
4.75391e-05
3.94399e-05
2.84693e-05
2.47322e-05
6.38449e-05
6.3797e-05
6.36537e-05
6.3416e-05
6.30855e-05
6.2664e-05
6.02154e-05
5.33387e-05
3.83024e-05
2.47016e-05
6.03975e-05
6.03862e-05
6.0354e-05
6.02998e-05
6.02247e-05
6.01278e-05
6.00102e-05
5.98712e-05
5.9712e-05
5.95321e-05
5.93327e-05
5.83634e-05
5.71226e-05
5.42978e-05
5.08902e-05
4.39619e-05
3.71582e-05
2.77934e-05
2.46017e-05
4.94167e-05
4.93873e-05
4.92985e-05
4.9151e-05
4.89455e-05
4.86829e-05
4.71552e-05
4.28204e-05
3.30983e-05
2.38478e-05
4.05367e-05
4.05312e-05
4.0516e-05
4.04902e-05
4.04548e-05
4.04088e-05
4.03532e-05
4.02872e-05
4.02119e-05
4.01267e-05
4.00322e-05
3.95698e-05
3.89786e-05
3.76191e-05
3.59627e-05
3.2535e-05
2.90467e-05
2.40378e-05
2.23331e-05
3.31696e-05
3.31556e-05
3.31135e-05
3.30437e-05
3.29463e-05
3.28217e-05
3.20948e-05
3.0006e-05
2.51982e-05
2.04215e-05
2.69044e-05
2.69019e-05
2.68947e-05
2.68827e-05
2.6866e-05
2.68445e-05
2.68184e-05
2.67875e-05
2.67521e-05
2.67122e-05
2.66679e-05
2.64506e-05
2.6172e-05
2.55317e-05
2.47499e-05
2.30982e-05
2.1393e-05
1.8886e-05
1.804e-05
2.14207e-05
2.14143e-05
2.13952e-05
2.13633e-05
2.13189e-05
2.12619e-05
2.09302e-05
1.99679e-05
1.77227e-05
1.54386e-05
1.64984e-05
1.64973e-05
1.64942e-05
1.6489e-05
1.64818e-05
1.64724e-05
1.64612e-05
1.64478e-05
1.64325e-05
1.64153e-05
1.63962e-05
1.63014e-05
1.61799e-05
1.5903e-05
1.5563e-05
1.48369e-05
1.40833e-05
1.29532e-05
1.25801e-05
1.19705e-05
1.1968e-05
1.19605e-05
1.1948e-05
1.19307e-05
1.19083e-05
1.17789e-05
1.14022e-05
1.0521e-05
9.60807e-06
7.73951e-06
7.73912e-06
7.73816e-06
7.73648e-06
7.73423e-06
7.73126e-06
7.72772e-06
7.72349e-06
7.71869e-06
7.71332e-06
7.70741e-06
7.67686e-06
7.63835e-06
7.55132e-06
7.44482e-06
7.21426e-06
6.97741e-06
6.60481e-06
6.49573e-06
3.7443e-06
3.74386e-06
3.74244e-06
3.74007e-06
3.73673e-06
3.73236e-06
3.70817e-06
3.63451e-06
3.47982e-06
3.30907e-06
-0
-0
-0
-0
-0
-0
-0
-0
-0
-0
-0
-0
-0
-0
-0
-0
-0
-0
-0
SCALARS Stress_R double 1
LOOKUP_TABLE default
4.45019
4.40879
4.37638
4.28304
4.19571
4.04631
3.91901
3.75487
3.5198
3.17463
2.41813
1.35016