# vtk DataFile Version 2.0
./vtk
ASCII

DATASET UNSTRUCTURED_GRID
POINTS 889 double
0 0 0.0
0.5 0 0.0
1 0 0.0
1.5 0 0.0
2 0 0.0
2.5 0 0.0
3 0 0.0
3.5 0 0.0
4 0 0.0
4.5 0 0.0
5 0 0.0
6.9457 0 0.0
8.8914 0 0.0
12.3514 0 0.0
15.8114 0 0.0
21.9642 0 0.0
28.1171 0 0.0
39.0585 0 0.0
50 0 0.0
0 -0.5 0.0
1 -0.5 0.0
2 -0.5 0.0
3 -0.5 0.0
4 -0.5 0.0
5 -0.5 0.0
8.8914 -0.5 0.0
15.8114 -0.5 0.0
28.1171 -0.5 0.0
50 -0.5 0.0
0 -1 0.0
0.5 -1 0.0
1 -1 0.0
1.5 -1 0.0
2 -1 0.0
2.5 -1 0.0
3 -1 0.0
3.5 -1 0.0
4 -1 0.0
4.5 -1 0.0
5 -1 0.0
6.9457 -1 0.0
8.8914 -1 0.0
12.3514 -1 0.0
15.8114 -1 0.0
21.9642 -1 0.0
28.1171 -1 0.0
39.0585 -1 0.0
50 -1 0.0
0 -1.5 0.0
1 -1.5 0.0
2 -1.5 0.0
3 -1.5 0.0
4 -1.5 0.0
5 -1.5 0.0
8.8914 -1.5 0.0
15.8114 -1.5 0.0
28.1171 -1.5 0.0
50 -1.5 0.0
0 -2 0.0
0.5 -2 0.0
1 -2 0.0
1.5 -2 0.0
2 -2 0.0
2.5 -2 0.0
3 -2 0.0
3.5 -2 0.0
4 -2 0.0
4.5 -2 0.0
5 -2 0.0
6.9457 -2 0.0
8.8914 -2 0.0
12.3514 -2 0.0
15.8114 -2 0.0
21.9642 -2 0.0
28.1171 -2 0.0
39.0585 -2 0.0
50 -2 0.0
0 -2.5 0.0
1 -2.5 0.0
2 -2.5 0.0
3 -2.5 0.0
4 -2.5 0.0
5 -2.5 0.0
8.8914 -2.5 0.0
15.8114 -2.5 0.0
28.1171 -2.5 0.0
50 -2.5 0.0
0 -3 0.0
0.5 -3 0.0
1 -3 0.0
1.5 -3 0.0
2 -3 0.0
2.5 -3 0.0
3 -3 0.0
3.5 -3 0.0
4 -3 0.0
4.5 -3 0.0
5 -3 0.0
6.9457 -3 0.0
8.8914 -3 0.0
12.3514 -3 0.0
15.8114 -3 0.0
21.9642 -3 0.0
28.1171 -3 0.0
39.0585 -3 0.0
50 -3 0.0
0 -3.5 0.0
1 -3.5 0.0
2 -3.5 0.0
3 -3.5 0.0
4 -3.5 0.0
5 -3.5 0.0
8.8914 -3.5 0.0
15.8114 -3.5 0.0
28.1171 -3.5 0.0
50 -3.5 0.0
0 -4 0.0
0.5 -4 0.0
1 -4 0.0
1.5 -4 0.0
2 -4 0.0
2.5 -4 0.0
3 -4 0.0
3.5 -4 0.0
4 -4 0.0
4.5 -4 0.0
5 -4 0.0
6.9457 -4 0.0
8.8914 -4 0.0
12.3514 -4 0.0
15.8114 -4 0.0
21.9642 -4 0.0
28.1171 -4 0.0
39.0585 -4 0.0
50 -4 0.0
0 -4.5 0.0
1 -4.5 0.0
2 -4.5 0.0
3 -4.5 0.0
4 -4.5 0.0
5 -4.5 0.0
8.8914 -4.5 0.0
15.8114 -4.5 0.0
28.1171 -4.5 0.0
50 -4.5 0.0
0 -5 0.0
0.5 -5 0.0
1 -5 0.0
1.5 -5 0.0
2 -5 0.0
2.5 -5 0.0
3 -5 0.0
3.5 -5 0.0
4 -5 0.0
4.5 -5 0.0
5 -5 0.0
6.9457 -5 0.0
8.8914 -5 0.0
12.3514 -5 0.0
15.8114 -5 0.0
21.9642 -5 0.0
28.1171 -5 0.0
39.0585 -5 0.0
50 -5 0.0
0 -5.5 0.0
1 -5.5 0.0
2 -5.5 0.0
3 -5.5 0.0
4 -5.5 0.0
5 -5.5 0.0
8.8914 -5.5 0.0
15.8114 -5.5 0.0
28.1171 -5.5 0.0
50 -5.5 0.0
0 -6 0.0
0.5 -6 0.0
1 -6 0.0
1.5 -6 0.0
2 -6 0.0
2.5 -6 0.0
3 -6 0.0
3.5 -6 0.0
4 -6 0.0
4.5 -6 0.0
5 -6 0.0
6.9457 -6 0.0
8.8914 -6 0.0
12.3514 -6 0.0
15.8114 -6 0.0
21.9642 -6 0.0
28.1171 -6 0.0
39.0585 -6 0.0
50 -6 0.0
0 -6.5 0.0
1 -6.5 0.0
2 -6.5 0.0
3 -6.5 0.0
4 -6.5 0.0
5 -6.5 0.0
8.8914 -6.5 0.0
15.8114 -6.5 0.0
28.1171 -6.5 0.0
50 -6.5 0.0
0 -7 0.0
0.5 -7 0.0
1 -7 0.0
1.5 -7 0.0
2 -7 0.0
2.5 -7 0.0
3 -7 0.0
3.5 -7 0.0
4 -7 0.0
4.5 -7 0.0
5 -7 0.0
6.9457 -7 0.0
8.8914 -7 0.0
12.3514 -7 0.0
15.8114 -7 0.0
21.9642 -7 0.0
28.1171 -7 0.0
39.0585 -7 0.0
50 -7 0.0
0 -7.5 0.0
1 -7.5 0.0
2 -7.5 0.0
3 -7.5 0.0
4 -7.5 0.0
5 -7.5 0.0
8.8914 -7.5 0.0
15.8114 -7.5 0.0
28.1171 -7.5 0.0
50 -7.5 0.0
0 -8 0.0
0.5 -8 0.0
1 -8 0.0
1.5 -8 0.0
2 -8 0.0
2.5 -8 0.0
3 -8 0.0
3.5 -8 0.0
4 -8 0.0
4.5 -8 0.0
5 -8 0.0
6.9457 -8 0.0
8.8914 -8 0.0
12.3514 -8 0.0
15.8114 -8 0.0
21.9642 -8 0.0
28.1171 -8 0.0
39.0585 -8 0.0
50 -8 0.0
0 -8.5 0.0
1 -8.5 0.0
2 -8.5 0.0
3 -8.5 0.0
4 -8.5 0.0
5 -8.5 0.0
8.8914 -8.5 0.0
15.8114 -8.5 0.0
28.1171 -8.5 0.0
50 -8.5 0.0
0 -9 0.0
0.5 -9 0.0
1 -9 0.0
1.5 -9 0.0
2 -9 0.0
2.5 -9 0.0
3 -9 0.0
3.5 -9 0.0
4 -9 0.0
4.5 -9 0.0
5 -9 0.0
6.9457 -9 0.0
8.8914 -9 0.0
12.3514 -9 0.0
15.8114 -9 0.0
21.9642 -9 0.0
28.1171 -9 0.0
39.0585 -9 0.0
50 -9 0.0
0 -9.5 0.0
1 -9.5 0.0
2 -9.5 0.0
3 -9.5 0.0
4 -9.5 0.0
5 -9.5 0.0
8.8914 -9.5 0.0
15.8114 -9.5 0.0
28.1171 -9.5 0.0
50 -9.5 0.0
0 -10 0.0
0.5 -10 0.0
1 -10 0.0
1.5 -10 0.0
2 -10 0.0
2.5 -10 0.0
3 -10 0.0
3.5 -10 0.0
4 -10 0.0
4.5 -10 0.0
5 -10 0.0
6.9457 -10 0.0
8.8914 -10 0.0
12.3514 -10 0.0
15.8114 -10 0.0
21.9642 -10 0.0
28.1171 -10 0.0
39.0585 -10 0.0
50 -10 0.0
0 -10.5 0.0
1 -10.5 0.0
2 -10.5 0.0
3 -10.5 0.0
4 -10.5 0.0
5 -10.5 0.0
8.8914 -10.5 0.0
15.8114 -10.5 0.0
28.1171 -10.5 0.0
50 -10.5 0.0
0 -11 0.0
0.5 -11 0.0
1 -11 0.0
1.5 -11 0.0
2 -11 0.0
2.5 -11 0.0
3 -11 0.0
3.5 -11 0.0
4 -11 0.0
4.5 -11 0.0
5 -11 0.0
6.9457 -11 0.0
8.8914 -11 0.0
12.3514 -11 0.0
15.8114 -11 0.0
21.9642 -11 0.0
28.1171 -11 0.0
39.0585 -11 0.0
50 -11 0.0
0 -11.5 0.0
1 -11.5 0.0
2 -11.5 0.0
3 -11.5 0.0
4 -11.5 0.0
5 -11.5 0.0
8.8914 -11.5 0.0
15.8114 -11.5 0.0
28.1171 -11.5 0.0
50 -11.5 0.0
0 -12 0.0
0.5 -12 0.0
1 -12 0.0
1.5 -12 0.0
2 -12 0.0
2.5 -12 0.0
3 -12 0.0
3.5 -12 0.0
4 -12 0.0
4.5 -12 0.0
5 -12 0.0
6.9457 -12 0.0
8.8914 -12 0.0
12.3514 -12 0.0
15.8114 -12 0.0
21.9642 -12 0.0
28.1171 -12 0.0
39.0585 -12 0.0
50 -12 0.0
0 -12.5 0.0
1 -12.5 0.0
2 -12.5 0.0
3 -12.5 0.0
4 -12.5 0.0
5 -12.5 0.0
8.8914 -12.5 0.0
15.8114 -12.5 0.0
28.1171 -12.5 0.0
50 -12.5 0.0
0 -13 0.0
0.5 -13 0.0
1 -13 0.0
1.5 -13 0.0
2 -13 0.0
2.5 -13 0.0
3 -13 0.0
3.5 -13 0.0
4 -13 0.0
4.5 -13 0.0
5 -13 0.0
6.9457 -13 0.0
8.8914 -13 0.0
12.3514 -13 0.0
15.8114 -13 0.0
21.9642 -13 0.0
28.1171 -13 0.0
39.0585 -13 0.0
50 -13 0.0
0 -13.5 0.0
1 -13.5 0.0
2 -13.5 0.0
3 -13.5 0.0
4 -13.5 0.0
5 -13.5 0.0
8.8914 -13.5 0.0
15.8114 -13.5 0.0
28.1171 -13.5 0.0
50 -13.5 0.0
0 -14 0.0
0.5 -14 0.0
1 -14 0.0
1.5 -14 0.0
2 -14 0.0
2.5 -14 0.0
3 -14 0.0
3.5 -14 0.0
4 -14 0.0
4.5 -14 0.0
5 -14 0.0
6.9457 -14 0.0
8.8914 -14 0.0
12.3514 -14 0.0
15.8114 -14 0.0
21.9642 -14 0.0
28.1171 -14 0.0
39.0585 -14 0.0
50 -14 0.0
0 -14.5 0.0
1 -14.5 0.0
2 -14.5 0.0
3 -14.5 0.0
4 -14.5 0.0
5 -14.5 0.0
8.8914 -14.5 0.0
15.8114 -14.5 0.0
28.1171 -14.5 0.0
50 -14.5 0.0
0 -15 0.0
0.5 -15 0.0
1 -15 0.0
1.5 -15 0.0
2 -15 0.0
2.5 -15 0.0
3 -15 0.0
3.5 -15 0.0
4 -15 0.0
4.5 -15 0.0
5 -15 0.0
6.9457 -15 0.0
8.8914 -15 0.0
12.3514 -15 0.0
15.8114 -15 0.0
21.9642 -15 0.0
28.1171 -15 0.0
39.0585 -15 0.0
50 -15 0.0
0 -16.5 0.0
1 -16.5 0.0
2 -16.5 0.0
3 -16.5 0.0
4 -16.5 0.0
5 -16.5 0.0
8.8914 -16.5 0.0
15.8114 -16.5 0.0
28.1171 -16.5 0.0
50 -16.5 0.0
0 -18 0.0
0.5 -18 0.0
1 -18 0.0
1.5 -18 0.0
2 -18 0.0
2.5 -18 0.0
3 -18 0.0
3.5 -18 0.0
4 -18 0.0
4.5 -18 0.0
5 -18 0.0
6.9457 -18 0.0
8.8914 -18 0.0
12.3514 -18 0.0
15.8114 -18 0.0
21.9642 -18 0.0
28.1171 -18 0.0
39.0585 -18 0.0
50 -18 0.0
0 -19.5 0.0
1 -19.5 0.0
2 -19.5 0.0
3 -19.5 0.0
4 -19.5 0.0
5 -19.5 0.0
8.8914 -19.5 0.0
15.8114 -19.5 0.0
28.1171 -19.5 0.0
50 -19.5 0.0
0 -21 0.0
0.5 -21 0.0
1 -21 0.0
1.5 -21 0.0
2 -21 0.0
2.5 -21 0.0
3 -21 0.0
3.5 -21 0.0
4 -21 0.0
4.5 -21 0.0
5 -21 0.0
6.9457 -21 0.0
8.8914 -21 0.0
12.3514 -21 0.0
15.8114 -21 0.0
21.9642 -21 0.0
28.1171 -21 0.0
39.0585 -21 0.0
50 -21 0.0
0 -22.5 0.0
1 -22.5 0.0
2 -22.5 0.0
3 -22.5 0.0
4 -22.5 0.0
5 -22.5 0.0
8.8914 -22.5 0.0
15.8114 -22.5 0.0
28.1171 -22.5 0.0
50 -22.5 0.0
0 -24 0.0
0.5 -24 0.0
1 -24 0.0
1.5 -24 0.0
2 -24 0.0
2.5 -24 0.0
3 -24 0.0
3.5 -24 0.0
4 -24 0.0
4.5 -24 0.0
5 -24 0.0
6.9457 -24 0.0
8.8914 -24 0.0
12.3514 -24 0.0
15.8114 -24 0.0
21.9642 -24 0.0
28.1171 -24 0.0
39.0585 -24 0.0
50 -24 0.0
0 -25.5 0.0
1 -25.5 0.0
2 -25.5 0.0
3 -25.5 0.0
4 -25.5 0.0
5 -25.5 0.0
8.8914 -25.5 0.0
15.8114 -25.5 0.0
28.1171 -25.5 0.0
50 -25.5 0.0
0 -27 0.0
0.5 -27 0.0
1 -27 0.0
1.5 -27 0.0
2 -27 0.0
2.5 -27 0.0
3 -27 0.0
3.5 -27 0.0
4 -27 0.0
4.5 -27 0.0
5 -27 0.0
6.9457 -27 0.0
8.8914 -27 0.0
12.3514 -27 0.0
15.8114 -27 0.0
21.9642 -27 0.0
28.1171 -27 0.0
39.0585 -27 0.0
50 -27 0.0
0 -28.5 0.0
1 -28.5 0.0
2 -28.5 0.0
3 -28.5 0.0
4 -28.5 0.0
5 -28.5 0.0
8.8914 -28.5 0.0
15.8114 -28.5 0.0
28.1171 -28.5 0.0
50 -28.5 0.0
0 -30 0.0
0.5 -30 0.0
1 -30 0.0
1.5 -30 0.0
2 -30 0.0
2.5 -30 0.0
3 -30 0.0
3.5 -30 0.0
4 -30 0.0
4.5 -30 0.0
5 -30 0.0
6.9457 -30 0.0
8.8914 -30 0.0
12.3514 -30 0.0
15.8114 -30 0.0
21.9642 -30 0.0
28.1171 -30 0.0
39.0585 -30 0.0
50 -30 0.0
0 -31.5 0.0
1 -31.5 0.0
2 -31.5 0.0
3 -31.5 0.0
4 -31.5 0.0
5 -31.5 0.0
8.8914 -31.5 0.0
15.8114 -31.5 0.0
28.1171 -31.5 0.0
50 -31.5 0.0
0 -33 0.0
0.5 -33 0.0
1 -33 0.0
1.5 -33 0.0
2 -33 0.0
2.5 -33 0.0
3 -33 0.0
3.5 -33 0.0
4 -33 0.0
4.5 -33 0.0
5 -33 0.0
6.9457 -33 0.0
8.8914 -33 0.0
12.3514 -33 0.0
15.8114 -33 0.0
21.9642 -33 0.0
28.1171 -33 0.0
39.0585 -33 0.0
50 -33 0.0
0 -34.5 0.0
1 -34.5 0.0
2 -34.5 0.0
3 -34.5 0.0
4 -34.5 0.0
5 -34.5 0.0
8.8914 -34.5 0.0
15.8114 -34.5 0.0
28.1171 -34.5 0.0
50 -34.5 0.0
0 -36 0.0
0.5 -36 0.0
1 -36 0.0
1.5 -36 0.0
2 -36 0.0
2.5 -36 0.0
3 -36 0.0
3.5 -36 0.0
4 -36 0.0
4.5 -36 0.0
5 -36 0.0
6.9457 -36 0.0
8.8914 -36 0.0
12.3514 -36 0.0
15.8114 -36 0.0
21.9642 -36 0.0
28.1171 -36 0.0
39.0585 -36 0.0
50 -36 0.0
0 -37.5 0.0
1 -37.5 0.0
2 -37.5 0.0
3 -37.5 0.0
4 -37.5 0.0
5 -37.5 0.0
8.8914 -37.5 0.0
15.8114 -37.5 0.0
28.1171 -37.5 0.0
50 -37.5 0.0
0 -39 0.0
0.5 -39 0.0
1 -39 0.0
1.5 -39 0.0
2 -39 0.0
2.5 -39 0.0
3 -39 0.0
3.5 -39 0.0
4 -39 0.0
4.5 -39 0.0
5 -39 0.0
6.9457 -39 0.0
8.8914 -39 0.0
12.3514 -39 0.0
15.8114 -39 0.0
21.9642 -39 0.0
28.1171 -39 0.0
39.0585 -39 0.0
50 -39 0.0
0 -40.5 0.0
1 -40.5 0.0
2 -40.5 0.0
3 -40.5 0.0
4 -40.5 0.0
5 -40.5 0.0
8.8914 -40.5 0.0
15.8114 -40.5 0.0
28.1171 -40.5 0.0
50 -40.5 0.0
0 -42 0.0
0.5 -42 0.0
1 -42 0.0
1.5 -42 0.0
2 -42 0.0
2.5 -42 0.0
3 -42 0.0
3.5 -42 0.0
4 -42 0.0
4.5 -42 0.0
5 -42 0.0
6.9457 -42 0.0
8.8914 -42 0.0
12.3514 -42 0.0
15.8114 -42 0.0
21.9642 -42 0.0
28.1171 -42 0.0
39.0585 -42 0.0
50 -42 0.0
0 -43.5 0.0
1 -43.5 0.0
2 -43.5 0.0
3 -43.5 0.0
4 -43.5 0.0
5 -43.5 0.0
8.8914 -43.5 0.0
15.8114 -43.5 0.0
28.1171 -43.5 0.0
50 -43.5 0.0
0 -45 0.0
0.5 -45 0.0
1 -45 0.0
1.5 -45 0.0
2 -45 0.0
2.5 -45 0.0
3 -45 0.0
3.5 -45 0.0
4 -45 0.0
4.5 -45 0.0
5 -45 0.0
6.9457 -45 0.0
8.8914 -45 0.0
12.3514 -45 0.0
15.8114 -45 0.0
21.9642 -45 0.0
28.1171 -45 0.0
39.0585 -45 0.0
50 -45 0.0
0 -50.5 0.0
1 -50.5 0.0
2 -50.5 0.0
3 -50.5 0.0
4 -50.5 0.0
5 -50.5 0.0
8.8914 -50.5 0.0
15.8114 -50.5 0.0
28.1171 -50.5 0.0
50 -50.5 0.0
0 -56 0.0
0.5 -56 0.0
1 -56 0.0
1.5 -56 0.0
2 -56 0.0
2.5 -56 0.0
3 -56 0.0
3.5 -56 0.0
4 -56 0.0
4.5 -56 0.0
5 -56 0.0
6.9457 -56 0.0
8.8914 -56 0.0
12.3514 -56 0.0
15.8114 -56 0.0
21.9642 -56 0.0
28.1171 -56 0.0
39.0585 -56 0.0
50 -56 0.0
0 -61.5 0.0
1 -61.5 0.0
2 -61.5 0.0
3 -61.5 0.0
4 -61.5 0.0
5 -61.5 0.0
8.8914 -61.5 0.0
15.8114 -61.5 0.0
28.1171 -61.5 0.0
[...]
POINT_DATA 889
SCALARS Displacement_R double 1
LOOKUP_TABLE default
0
-2.58091e-05
-5.13161e-05
-7.62311e-05
-0.00010024
-0.000123264
-0.000144949
-0.000165542
-0.000183843
-0.000198414
-0.000209438
-0.00022112
-0.000212053
-0.000187995
-0.000160458
-0.000125013
-9.07412e-05
-4.3998e-05
0
0
-3.58971e-05
-6.97691e-05
-9.94297e-05
-0.000121807
-0.000137512
-0.000162254
-0.000130148
-7.67166e-05
0
0
-1.12146e-05
-2.21983e-05
-3.27909e-05
-4.2711e-05
-5.17446e-05
-5.95348e-05
-6.61566e-05
-7.13287e-05
-7.50289e-05
-8.09749e-05
-0.000105026
-0.000113869
-0.000109631
-0.000100255
-8.24709e-05
-6.27872e-05
-3.0834e-05
0
0
-9.9214e-06
-1.86555e-05
-2.51196e-05
-2.91143e-05
-3.5064e-05
-6.77234e-05
-7.03691e-05
-4.87936e-05
0
0
6.49278e-07
1.36618e-06
2.16406e-06
3.13886e-06
4.34138e-06
5.67108e-06
6.93908e-06
7.66087e-06
7.30202e-06
5.66337e-06
-8.93158e-06
-2.2906e-05
-3.51483e-05
-4.07723e-05
-4.11219e-05
-3.4896e-05
-1.79491e-05
0
0
1.21203e-05
2.38578e-05
3.44814e-05
4.23469e-05
4.48421e-05
2.1064e-05
-1.15282e-05
-2.10933e-05
0
0
1.15742e-05
2.29802e-05
3.40856e-05
4.46835e-05
5.46176e-05
6.3595e-05
7.13367e-05
7.7535e-05
8.19605e-05
8.46414e-05
8.0232e-05
6.47969e-05
3.74928e-05
1.74416e-05
-5.19504e-07
-7.37108e-06
-5.23238e-06
0
0
3.45774e-05
6.70229e-05
9.49861e-05
0.000115971
0.000127821
0.000109172
4.59487e-05
6.12227e-06
0
0
2.39703e-05
4.75607e-05
7.04741e-05
9.22636e-05
0.000112535
0.00013085
0.000146777
0.00016009
0.000170373
0.000177467
0.000176797
0.000154422
0.000110007
7.41805e-05
3.97136e-05
1.95527e-05
7.41725e-06
0
0
4.67696e-05
9.06028e-05
0.000128433
0.000157333
0.000175052
0.000161634
8.47206e-05
2.74132e-05
0
0
2.29172e-05
4.54449e-05
6.72794e-05
8.79918e-05
0.000107296
0.000124808
0.000140177
0.000153091
0.000163561
0.000171503
0.000180365
0.000166689
0.000128391
9.48086e-05
5.72207e-05
3.52308e-05
1.50251e-05
0
0
4.37917e-05
8.48283e-05
0.000120446
0.000148396
0.000167399
0.000170018
0.00010379
4.27769e-05
0
0
2.11664e-05
4.19834e-05
6.21729e-05
8.13927e-05
9.93702e-05
0.000115814
0.000130478
0.000143255
0.000154004
0.000162771
0.000178026
0.000172001
0.000142782
0.000112403
7.46107e-05
5.03215e-05
2.26236e-05
0
0
4.01246e-05
7.78898e-05
0.000111109
0.000138096
0.000157935
0.000173273
0.000120476
5.77928e-05
0
0
1.92959e-05
3.83018e-05
5.67817e-05
7.44568e-05
9.11078e-05
0.000106524
0.000120525
0.000132999
0.000143866
0.000153104
0.000173015
0.000173822
0.000154177
0.000128312
9.18227e-05
6.52973e-05
3.02226e-05
0
0
3.65704e-05
7.12149e-05
0.000102191
0.000128176
0.000148392
0.000174163
0.000135868
7.28135e-05
0
0
1.76021e-05
3.49701e-05
5.19138e-05
6.8215e-05
8.36928e-05
9.81856e-05
0.000111545
0.000123682
0.000134525
0.000144034
0.000167557
0.000174284
0.000163985
0.000143353
0.000109089
8.03942e-05
3.78709e-05
0
0
3.35313e-05
6.55245e-05
9.45917e-05
0.000119664
0.000140059
0.00017458
0.000150803
8.80516e-05
0
0
1.62281e-05
3.22705e-05
4.79752e-05
6.31684e-05
7.77058e-05
9.14566e-05
0.000104299
0.000116156
0.000126964
0.000136677
0.000163206
0.000175077
0.000173558
0.000158371
0.000126723
9.58037e-05
4.56246e-05
0
0
3.12101e-05
6.11956e-05
8.88437e-05
0.000113276
0.000133892
0.000176061
0.000166151
0.000103691
0
0
1.52546e-05
3.0361e-05
4.51974e-05
5.96247e-05
7.35257e-05
8.67934e-05
9.93264e-05
0.000111057
0.000121926
0.00013189
0.000161184
0.000177621
0.000184187
0.000174255
0.000145085
0.000111703
5.35414e-05
0
0
2.97437e-05
5.8501e-05
8.53665e-05
0.000109605
0.000130682
0.000179952
0.000182822
0.000119906
0
0
1.4746e-05
2.93715e-05
4.37772e-05
5.7849e-05
7.14895e-05
8.46096e-05
9.71221e-05
0.000108967
0.00012009
0.000130447
0.000162598
0.000183221
0.00019714
0.000191929
0.000164564
0.000128262
6.16786e-05
0
0
2.92694e-05
5.77202e-05
8.45938e-05
0.000109255
0.000131216
0.000187555
0.00020176
0.000136861
0
0
1.47797e-05
2.94573e-05
4.39478e-05
5.81543e-05
7.1991e-05
8.53824e-05
9.82524e-05
0.000110542
0.000122204
0.000133186
0.000168599
0.000193207
0.000213695
0.000212355
0.000185568
0.00014564
7.00934e-05
0
0
2.99683e-05
5.92172e-05
8.70732e-05
0.000112959
0.000136412
0.000200264
0.000223944
0.000154703
0
0
1.54636e-05
3.08338e-05
4.60324e-05
6.09702e-05
7.55665e-05
8.97495e-05
0.000103453
0.000116623
0.000129192
0.000141136
0.000180542
0.000209068
0.00023519
0.000236528
0.000208523
0.000163969
7.88445e-05
0
0
3.2101e-05
6.35061e-05
9.35569e-05
0.000121675
0.000147411
0.000219693
0.000250374
0.000173537
0
0
1.69561e-05
3.38166e-05
5.05002e-05
6.69168e-05
8.29833e-05
9.86269e-05
0.000113764
0.000128337
0.000142283
0.000155569
0.000200162
0.000232583
0.00026307
0.00026545
0.000233882
0.000183327
8.79983e-05
0
0
3.6048e-05
7.13343e-05
0.00010514
0.000136836
0.000165903
0.000248064
0.000282071
0.000193383
0
0
1.9488e-05
3.88653e-05
5.80327e-05
7.68899e-05
9.53348e-05
0.000113287
0.000130645
0.000147355
0.000163356
0.000178586
0.000229346
0.000266509
0.000298813
0.000300154
0.000262166
0.00020367
9.76407e-05
0
0
3.35597e-05
6.64869e-05
9.81726e-05
0.000128079
0.000155733
0.000237042
0.000278246
0.00019749
0
0
1.46182e-05
2.91732e-05
4.36078e-05
5.78639e-05
7.18776e-05
8.56057e-05
9.89793e-05
0.00011197
0.000124515
0.000136591
0.000178268
0.000211458
0.000246216
0.000256828
0.000236405
0.000190114
9.34939e-05
0
0
2.55593e-05
5.0737e-05
7.51648e-05
9.85034e-05
0.000120447
0.000188888
0.000236887
0.0001821
0
0
1.12672e-05
2.24942e-05
3.36458e-05
4.46846e-05
5.55721e-05
6.62771e-05
7.6761e-05
8.69991e-05
9.69554e-05
0.000106614
0.00014091
0.000169284
0.000202888
0.000217914
0.00020911
0.000173398
8.75071e-05
0
0
1.99117e-05
3.95803e-05
5.87693e-05
7.72585e-05
9.48572e-05
0.000151938
0.000200317
0.000164519
0
0
8.85893e-06
1.7692e-05
2.64765e-05
3.51876e-05
4.38005e-05
5.22948e-05
6.06457e-05
6.88358e-05
7.68342e-05
8.46325e-05
0.000112729
0.000136739
0.000167444
0.000183867
0.000182458
0.00015534
8.03425e-05
0
0
1.57855e-05
3.1409e-05
4.67118e-05
6.15423e-05
7.5766e-05
0.000123214
0.000168654
0.000146302
0
0
7.06955e-06
1.41213e-05
2.11399e-05
2.81082e-05
3.50094e-05
4.18286e-05
4.855e-05
5.51591e-05
6.16381e-05
6.79777e-05
9.10748e-05
0.000111254
0.000138435
0.000154586
0.0001576
0.000137241
7.2571e-05
0
0
1.26702e-05
2.52277e-05
3.75619e-05
4.95658e-05
6.11421e-05
0.000100558
0.00014159
0.000128502
0
0
5.70146e-06
1.13903e-05
1.70559e-05
2.26858e-05
2.82683e-05
3.37925e-05
3.92471e-05
4.4622e-05
4.99046e-05
5.50873e-05
7.41207e-05
9.1023e-05
0.000114628
0.000129652
0.00013509
0.000119924
6.46533e-05
0
0
1.02619e-05
2.04429e-05
3.04633e-05
4.02457e-05
4.97181e-05
8.24582e-05
0.000118628
0.000111756
0
0
4.63361e-06
9.25802e-06
1.38655e-05
1.8447e-05
2.2994e-05
2.74985e-05
3.1952e-05
3.63471e-05
4.06752e-05
4.49297e-05
6.0648e-05
7.47743e-05
9.5023e-05
0.000108541
0.000115107
0.000103866
5.69317e-05
0
0
8.36534e-06
1.66711e-05
2.48583e-05
3.28697e-05
4.06509e-05
6.7848e-05
9.92321e-05
9.64156e-05
0
0
3.78647e-06
7.56611e-06
1.13332e-05
1.50807e-05
1.88027e-05
2.24927e-05
2.61448e-05
2.9753e-05
3.33114e-05
3.68144e-05
4.98149e-05
6.16038e-05
7.883e-05
9.07342e-05
9.76144e-05
8.93055e-05
4.96406e-05
0
0
6.85076e-06
1.36567e-05
2.03733e-05
2.69573e-05
3.33666e-05
5.59595e-05
8.28975e-05
8.26314e-05
0
0
3.1061e-06
6.20697e-06
9.29828e-06
1.23748e-05
1.54319e-05
1.84648e-05
2.14689e-05
2.44396e-05
2.73722e-05
3.02628e-05
4.10241e-05
5.08525e-05
6.54231e-05
7.57539e-05
8.2455e-05
7.63225e-05
4.29245e-05
0
0
5.62791e-06
1.12213e-05
1.67461e-05
2.21688e-05
2.7458e-05
4.62235e-05
6.91724e-05
7.04225e-05
0
0
2.55466e-06
5.1053e-06
7.64863e-06
1.01804e-05
1.26971e-05
1.51949e-05
1.76701e-05
2.0119e-05
2.25388e-05
2.49254e-05
3.38429e-05
4.20207e-05
5.43056e-05
6.31802e-05
6.94173e-05
6.48875e-05
3.68602e-05
0
0
4.63355e-06
9.24075e-06
1.37949e-05
1.82698e-05
2.26383e-05
3.82233e-05
5.76701e-05
5.97104e-05
0
0
2.10421e-06
4.20536e-06
6.30048e-06
8.38699e-06
1.04616e-05
1.2522e-05
1.45648e-05
1.6588e-05
1.85884e-05
2.05639e-05
2.79423e-05
3.47643e-05
4.50383e-05
5.26676e-05
5.82876e-05
5.48784e-05
3.14818e-05
0
0
2.97061e-06
5.92565e-06
8.84944e-06
1.17266e-05
1.45423e-05
2.46598e-05
3.76596e-05
4.02087e-05
0
0
1.04379e-06
2.0863e-06
3.12619e-06
4.1624e-06
5.19326e-06
6.21806e-06
7.23484e-06
8.24321e-06
9.2409e-06
1.02279e-05
1.39323e-05
1.73935e-05
2.27033e-05
2.68116e-05
3.01865e-05
2.91521e-05
1.69499e-05
0
0
1.48262e-06
2.95811e-06
4.41944e-06
5.85967e-06
7.27209e-06
1.23812e-05
1.91247e-05
2.10064e-05
0
0
5.23939e-07
1.04724e-06
1.56936e-06
2.08968e-06
2.60753e-06
3.12243e-06
3.63361e-06
4.14071e-06
4.64276e-06
5.13962e-06
7.00925e-06
8.76006e-06
1.14743e-05
1.35922e-05
1.5507e-05
1.51203e-05
8.86665e-06
0
0
7.48997e-07
1.49457e-06
2.2333e-06
2.96183e-06
3.67693e-06
6.27322e-06
9.75757e-06
1.08737e-05
0
0
2.67545e-07
5.34788e-07
8.01447e-07
1.06724e-06
1.33182e-06
1.59498e-06
1.85632e-06
2.11569e-06
2.37257e-06
2.62692e-06
3.58586e-06
4.4871e-06
5.8825e-06
6.98342e-06
8.00319e-06
7.84738e-06
4.62482e-06
0
0
3.81166e-07
7.60642e-07
1.13674e-06
1.50779e-06
1.87221e-06
3.19678e-06
4.99039e-06
5.60326e-06
0
0
1.28935e-07
2.57716e-07
3.86227e-07
5.14301e-07
6.41822e-07
7.68624e-07
8.94592e-07
1.01956e-06
1.14336e-06
1.26589e-06
1.72965e-06
2.16413e-06
2.84498e-06
3.37957e-06
3.89758e-06
3.8156e-06
2.26795e-06
0
0
1.41932e-07
2.83241e-07
4.23325e-07
5.6159e-07
6.97537e-07
1.19113e-06
1.86472e-06
2.11927e-06
0
0
0
0
0
0
0
0
0
0
0
0
0
0
0
0
0
0
0
0
SCALARS Displacement_Z double 1
LOOKUP_TABLE default
0.00283722
0.00283316
0.00282083
0.00280048
0.0027721
0.00273571
0.00269137
0.00263922
0.00257734
0.00250504
0.00241137
0.00212594
0.00190428
0.00158551
0.00134124
0.00102344
0.000805931
0.000580494
0.000510896
0.00284535
0.00282859
0.00277858
0.00269614
0.00257929
0.00241944
0.00190816
0.00134215
0.000805544
0.00050992
0.00284614
0.00284183
0.002829
0.0028077
0.00277802
0.00273997
0.00269357
0.00263893
0.00257589
0.00250284
0.00242424
0.0021419
0.00191171
0.00158935
0.00134308
0.00102363
0.00080526
0.000579133
0.000509096
0.00284086
0.00282348
0.0027717
0.00268638
0.00256829
0.00242469
0.00191432
0.00134392
0.000805055
0.000508431
0.00283042
0.00282603
0.0028129
0.00279114
0.00276083
0.00272211
0.00267529
0.00262083
0.00255928
0.00249195
0.00242137
0.0021496
0.00191615
0.00159242
0.0013448
0.00102418
0.000804942
0.000578257
0.000507918
0.00281556
0.00279809
0.0027462
0.00266152
0.00254814
0.00241547
0.00191702
0.00134552
0.000804889
0.000507542
0.00279627
0.00279193
0.00277902
0.0027576
0.00272789
0.00269015
0.00264492
0.00259282
0.00253488
0.00247218
0.00240631
0.00214726
0.00191698
0.0015944
0.00134631
0.00102508
0.000804921
0.000577872
0.000507316
0.00277231
0.00275547
0.00270562
0.00262502
0.00251874
0.00239482
0.00191588
0.00134691
0.000805016
0.000507232
0.00274266
0.00273859
0.00272639
0.00270623
0.00267828
0.00264297
0.00260078
0.00255242
0.0024988
0.002441
0.00238037
0.00213617
0.00191416
0.00159551
0.00134755
0.00102631
0.000805197
0.000577961
0.000507295
0.0026847
0.00266954
0.00262486
0.00255327
0.00245921
0.00235091
0.0019087
0.00134811
0.000805451
0.000507536
0.00262907
0.00262553
0.00261503
0.00259766
0.00257373
0.00254354
0.00250764
0.00246661
0.00242127
0.00237235
0.00232107
0.00210636
0.00190224
0.00159471
0.00134846
0.00102815
0.000805715
0.000578601
0.000507929
0.0025761
0.00256313
0.002525
0.00246408
0.0023845
0.0022919
0.00189508
0.00134858
0.000805949
0.000508411
0.00252593
0.00252292
0.00251395
0.00249916
0.00247878
0.00245311
0.00242259
0.00238775
0.00234913
0.00230729
0.002263
0.00207362
0.00188698
0.00159141
0.0013484
0.00102945
0.000806199
0.000579634
0.000509039
0.00247854
0.00246749
0.00243501
0.00238312
0.00231506
0.00223494
0.00187821
0.00134792
0.000806441
0.000509779
0.0024339
0.00243133
0.00242367
0.00241104
0.00239363
0.00237169
0.00234557
0.00231565
0.00228236
0.00224611
0.00220743
0.00203948
0.00186861
0.0015856
0.00134707
0.00103011
0.000806704
0.000581035
0.000510664
0.00239182
0.00238235
0.00235449
0.00230985
0.00225092
0.00218081
0.00185849
0.00134586
0.000806962
0.000511667
0.00235217
0.00234996
0.00234337
0.00233248
0.00231745
0.00229848
0.00227584
0.00224982
0.00222075
0.00218895
0.00215483
0.00200471
0.00184766
0.00157732
0.00134424
0.00103006
0.000807246
0.000582801
0.000512814
0.00231473
0.00230652
0.00228233
0.00224342
0.00219171
0.00212965
0.00183641
0.00134223
0.000807528
0.000514081
0.00227931
0.00227738
0.00227162
0.00226211
0.00224896
0.00223233
0.00221242
0.00218948
0.00216376
0.00213552
0.00210508
0.00196967
0.00182454
0.00156666
0.00133978
0.00102924
0.00080784
0.000584939
0.000515494
0.00224566
0.00223844
0.00221713
0.00218271
0.00213674
0.00208115
0.00181231
0.00133693
0.000808155
0.00051703
0.00221357
0.00221186
0.00220676
0.00219832
0.00218664
0.00217185
0.00215411
0.0021336
0.00211055
0.00208516
0.00205768
0.00193439
0.00179951
0.00155368
0.00133363
0.00102764
0.000808506
0.000587463
0.000518713
0.00218278
0.00217633
0.00215728
0.00212643
0.00208502
0.00203464
0.00178634
0.00132993
0.000808866
0.000520521
0.00215305
0.00215151
0.00214693
0.00213934
0.00212882
0.00211549
0.00209946
0.00208091
0.00205999
0.0020369
0.00201185
0.0018986
0.00177259
0.00153841
0.0013258
0.00102528
0.00080927
0.000590391
0.000522479
0.0021241
0.00211828
0.00210102
0.00207301
0.00203529
0.00198919
0.00175843
0.00132128
0.00080969
0.000524566
0.00209567
0.00209427
0.0020901
0.00208319
0.00207362
0.00206146
0.00204683
0.00202986
0.0020107
0.00198952
0.00196648
0.00186178
0.00174363
0.00152084
0.00131635
0.00102222
0.000810166
0.000593749
0.000526807
0.00206743
0.00206211
0.00204633
0.00202067
0.00198602
0.00194354
0.00172834
0.00131105
0.000810669
0.000529183
0.00203906
0.00203778
0.00203396
0.00202763
0.00201885
0.00200768
0.00199424
0.00197863
0.00196098
0.00194143
0.00192016
0.0018231
0.00171232
0.00150091
0.0013054
0.00101855
0.000811239
0.000597565
0.000531716
0.0020102
0.00200531
0.00199083
0.00196725
0.00193532
0.00189608
0.00169568
0.00129941
0.000811851
0.000534394
0.00198042
0.00197924
0.00197575
0.00196994
0.00196189
0.00195165
0.00193932
0.00192497
0.00190874
0.00189073
0.00187102
0.00178141
0.0016782
0.00147851
0.00129311
0.00101445
0.000812546
0.000601869
0.000537235
0.00194926
0.00194482
0.00193161
0.00191007
0.00188086
0.00184484
0.00165994
0.0012865
0.0008133
0.000540239
0.00191621
0.00191518
0.00191201
0.00190678
0.00189948
0.00189023
0.00187904
0.00186605
0.0018513
0.00183492
0.00181702
0.00173512
0.00164068
0.00145362
0.00127967
0.00101011
0.000814155
0.000606687
0.00054341
0.00177602
0.00177264
0.00176252
0.00174596
0.00172337
0.00169528
0.00154858
0.00123447
0.000803413
0.000544713
0.00165325
0.00165252
0.00165045
0.00164696
0.00164215
0.00163598
0.00162854
0.00161982
0.00160992
0.00159888
0.00158676
0.00153047
0.001463
0.00132593
0.00118898
0.000964531
0.000791843
0.000604268
0.000545569
0.00154457
0.00154225
0.00153538
0.00152408
0.0015086
0.00148924
0.00138461
0.00114512
0.000779854
0.00054593
0.00144778
0.00144729
0.00144585
0.00144344
0.00144009
0.00143581
0.00143062
0.00142454
0.00141761
0.00140988
0.00140137
0.00136113
0.00131199
0.00120957
0.00110187
0.000916502
0.000767109
0.000599253
0.000545735
0.00136094
0.00135932
0.00135446
0.00134645
0.00133543
0.00132155
0.00124502
0.00106044
0.000754001
0.000544982
0.0012826
0.00128225
0.00128121
0.00127948
0.00127707
0.00127399
0.00127024
0.00126585
0.00126082
0.00125519
0.00124897
0.00121947
0.00118292
0.00110507
0.00102011
0.000867854
0.000740269
0.000591622
0.000543591
0.00121149
0.0012103
0.00120675
0.00120088
0.00119279
0.00118256
0.00112533
0.000981613
0.000726282
0.000541624
0.00114665
0.00114639
0.00114562
0.00114434
0.00114255
0.00114027
0.00113749
0.00113422
0.00113048
0.00112629
0.00112164
0.00109951
0.00107179
0.00101177
0.000944416
0.000819783
0.000711816
0.000581467
0.000538969
0.00108724
0.00108635
0.00108369
0.00107929
0.0010732
0.00106549
0.0010219
0.000908966
0.000697204
0.000535744
0.00103259
0.00103239
0.00103181
0.00103084
0.00102949
0.00102776
0.00102566
0.00102318
0.00102034
0.00101715
0.00101361
0.000996695
0.000975347
0.000928527
0.000874853
0.000773012
0.000682245
0.00056896
0.000531818
0.000982115
0.000981436
0.000979405
0.000976043
0.000971383
0.00096547
0.000931761
0.000842324
0.000667233
0.000527347
0.000935337
0.000935186
0.000934739
0.000933993
0.000932954
0.00093162
0.000929998
0.000928087
0.000925897
0.00092343
0.000920693
0.00090758
0.000890925
0.000854048
0.000811076
0.000727923
0.000651981
0.000554309
0.000522188
0.000891821
0.000891295
0.000889721
0.000887113
0.000883494
0.000878895
0.000852517
0.000781228
0.000636747
0.000516523
0.000851218
0.0008511
0.000850752
0.000850171
0.00084936
0.000848319
0.000847053
0.000845561
0.000843849
0.00084192
0.000839778
0.000829493
0.00081637
0.000787099
0.000752557
0.00068467
0.000621357
0.000537743
0.000510205
0.000813203
0.000812791
0.000811557
0.000809511
0.000806669
0.000803053
0.000782217
0.0007251
0.000606031
0.000503425
0.000777513
0.00077742
0.000777146
0.000776688
0.000776049
0.000775229
0.00077423
0.000773054
0.000771703
0.00077018
0.000768489
0.000760348
0.000749925
0.000726551
0.000698697
0.000643257
0.000590611
0.000519487
0.000496042
0.000743898
0.000743572
0.000742596
0.000740976
0.000738724
0.000735857
0.000719279
0.000673334
0.000575284
0.000488246
0.000712155
0.000712082
0.000711864
0.000711501
0.000710993
0.000710342
0.000709549
0.000708614
0.00070754
0.000706328
0.000704978
0.000698495
0.000690161
0.000671406
0.000648899
0.0006036
0.000559905
0.000499756
0.000479902
0.000682091
0.00068183
0.000681052
0.000679762
0.000677969
0.000675682
0.000662419
0.000625337
0.000544629
0.000471197
0.000653545
0.000653484
0.000653311
0.000653018
0.000652614
0.000652092
0.00065146
0.000650711
0.000649855
0.000648888
0.000647816
0.000642601
0.00063594
0.000620795
0.00060258
0.000565578
0.000529331
0.000478746
0.000462005
0.000559452
0.000559298
0.000558833
0.000558059
0.000556982
0.000555606
0.000547607
0.000524938
0.000474265
0.00042581
0.000478284
0.000478255
0.000478177
0.000478045
0.000477863
0.000477626
0.000477341
0.000477002
0.000476616
0.000476178
0.000475694
0.000473316
0.000470282
0.00046331
0.000454816
0.000437247
0.000419341
0.000393426
0.000384809
0.000405931
0.00040586
0.000405647
0.000405295
0.000404803
0.000404174
0.000400504
0.000389961
0.000365711
0.00034152
0.0003398
0.000339787
0.000339752
0.000339692
0.000339609
0.000339502
0.000339372
0.000339218
0.000339042
0.000338844
0.000338624
0.000337541
0.000336154
0.000332968
0.000329084
0.000320844
0.000312334
0.000299745
0.000295559
0.000277938
0.000277907
0.000277812
0.000277656
0.000277437
0.000277156
0.000275525
0.000270787
0.000259725
0.000248423
0.000219074
0.000219069
0.000219054
0.000219028
0.000218993
0.000218948
0.000218893
0.000218827
0.000218753
0.000218669
0.000218576
0.000218113
0.00021752
0.000216172
0.000214514
0.000210966
0.000207282
0.000201722
0.000199909
0.000162266
0.000162254
0.000162218
0.000162157
0.000162073
0.000161965
0.00016134
0.000159517
0.000155249
0.000150808
0.000106979
0.000106977
0.000106972
0.000106964
0.000106953
0.000106939
0.000106922
0.000106902
0.000106879
0.000106853
0.000106825
0.000106678
0.000106493
0.000106076
0.000105565
0.000104454
0.000103314
0.000101508
0.000100986
5.28732e-05
5.28711e-05
5.28644e-05
5.28531e-05
5.28372e-05
5.28163e-05
5.27014e-05
5.23497e-05
5.1613e-05
5.07942e-05
-0
-0
-0
-0
-0
-0
-0
-0
-0
-0
-0
-0
-0
-0
-0
-0
-0
-0
-0
SCALARS Stress_R double 1
LOOKUP_TABLE default
32.3396
32.0332
31.8029
31.1303
30.5609
29.4773
28.7376
27.7739
25.6518
22.0921
12.9813
3.52345
0.102406
-0.714672
-1.27775
-1.2656
-1.31174
-1.28589
-1.31999
24.6723
24.2388
23.0471
20.8274
16.8494
11.0234
1.27762
-0.792824
-1.06428
-1.12731
18.2368
18.0105
17.8766
17.376
16.907
15.9974
15.1095
13.9189
11.3675
11.1112
10.1031
4.80947
1.67472
0.401224
-0.306256
-0.58683
-0.818543
-0.888047
-0.939251
11.646
11.3703
10.6576
9.31357
7.51889
7.86021
2.35584
0.132616
-0.595291
-0.760218
5.73984
5.67012
5.62851
5.48227
5.25629
5.04078
4.6812
4.55104
4.28312
4.48651
5.10977
3.21917
2.71742
1.30877
0.552508
0.0673126
-0.372921
-0.48617
-0.577873