# vtk DataFile Version 2.0
./vtk
ASCII

DATASET UNSTRUCTURED_GRID
POINTS 4064 double
0 0 0.0
0.1667 0 0.0
0.3333 0 0.0
0.5 0 0.0
0.6667 0 0.0
0.8333 0 0.0
1 0 0.0
1.1667 0 0.0
1.3333 0 0.0
1.5 0 0.0
1.6667 0 0.0
1.8333 0 0.0
2 0 0.0
2.1667 0 0.0
2.3333 0 0.0
2.5 0 0.0
2.6667 0 0.0
2.8333 0 0.0
3 0 0.0
3.1667 0 0.0
3.3333 0 0.0
3.5 0 0.0
3.6667 0 0.0
3.8333 0 0.0
4 0 0.0
4.1667 0 0.0
4.3333 0 0.0
4.5 0 0.0
4.6667 0 0.0
4.8333 0 0.0
5 0 0.0
5.4469 0 0.0
5.8938 0 0.0
6.4207 0 0.0
6.9475 0 0.0
7.5685 0 0.0
8.1895 0 0.0
8.9215 0 0.0
9.6535 0 0.0
10.5164 0 0.0
11.3792 0 0.0
12.3964 0 0.0
13.4135 0 0.0
14.6124 0 0.0
15.8114 0 0.0
17.2247 0 0.0
18.638 0 0.0
20.3039 0 0.0
21.9699 0 0.0
23.9336 0 0.0
25.8974 0 0.0
28.2122 0 0.0
30.527 0 0.0
33.2556 0 0.0
35.9843 0 0.0
39.2007 0 0.0
42.4171 0 0.0
46.2086 0 0.0
50 0 0.0
0 -0.1333 0.0
0.3333 -0.1333 0.0
0.6667 -0.1333 0.0
1 -0.1333 0.0
1.3333 -0.1333 0.0
1.6667 -0.1333 0.0
2 -0.1333 0.0
2.3333 -0.1333 0.0
2.6667 -0.1333 0.0
3 -0.1333 0.0
3.3333 -0.1333 0.0
3.6667 -0.1333 0.0
4 -0.1333 0.0
4.3333 -0.1333 0.0
4.6667 -0.1333 0.0
5 -0.1333 0.0
5.8938 -0.1333 0.0
6.9475 -0.1333 0.0
8.1895 -0.1333 0.0
9.6535 -0.1333 0.0
11.3792 -0.1333 0.0
13.4135 -0.1333 0.0
15.8114 -0.1333 0.0
18.638 -0.1333 0.0
21.9699 -0.1333 0.0
25.8974 -0.1333 0.0
30.527 -0.1333 0.0
35.9843 -0.1333 0.0
42.4171 -0.1333 0.0
50 -0.1333 0.0
0 -0.2667 0.0
0.1667 -0.2667 0.0
0.3333 -0.2667 0.0
0.5 -0.2667 0.0
0.6667 -0.2667 0.0
0.8333 -0.2667 0.0
1 -0.2667 0.0
1.1667 -0.2667 0.0
1.3333 -0.2667 0.0
1.5 -0.2667 0.0
1.6667 -0.2667 0.0
1.8333 -0.2667 0.0
2 -0.2667 0.0
2.1667 -0.2667 0.0
2.3333 -0.2667 0.0
2.5 -0.2667 0.0
2.6667 -0.2667 0.0
2.8333 -0.2667 0.0
3 -0.2667 0.0
3.1667 -0.2667 0.0
3.3333 -0.2667 0.0
3.5 -0.2667 0.0
3.6667 -0.2667 0.0
3.8333 -0.2667 0.0
4 -0.2667 0.0
4.1667 -0.2667 0.0
4.3333 -0.2667 0.0
4.5 -0.2667 0.0
4.6667 -0.2667 0.0
4.8333 -0.2667 0.0
5 -0.2667 0.0
5.4469 -0.2667 0.0
5.8938 -0.2667 0.0
6.4207 -0.2667 0.0
6.9475 -0.2667 0.0
7.5685 -0.2667 0.0
8.1895 -0.2667 0.0
8.9215 -0.2667 0.0
9.6535 -0.2667 0.0
10.5164 -0.2667 0.0
11.3792 -0.2667 0.0
12.3964 -0.2667 0.0
13.4135 -0.2667 0.0
14.6124 -0.2667 0.0
15.8114 -0.2667 0.0
17.2247 -0.2667 0.0
18.638 -0.2667 0.0
20.3039 -0.2667 0.0
21.9699 -0.2667 0.0
23.9336 -0.2667 0.0
25.8974 -0.2667 0.0
28.2122 -0.2667 0.0
30.527 -0.2667 0.0
33.2556 -0.2667 0.0
35.9843 -0.2667 0.0
39.2007 -0.2667 0.0
42.4171 -0.2667 0.0
46.2086 -0.2667 0.0
50 -0.2667 0.0
0 -0.4 0.0
0.3333 -0.4 0.0
0.6667 -0.4 0.0
1 -0.4 0.0
1.3333 -0.4 0.0
1.6667 -0.4 0.0
2 -0.4 0.0
2.3333 -0.4 0.0
2.6667 -0.4 0.0
3 -0.4 0.0
3.3333 -0.4 0.0
3.6667 -0.4 0.0
4 -0.4 0.0
4.3333 -0.4 0.0
4.6667 -0.4 0.0
5 -0.4 0.0
5.8938 -0.4 0.0
6.9475 -0.4 0.0
8.1895 -0.4 0.0
9.6535 -0.4 0.0
11.3792 -0.4 0.0
13.4135 -0.4 0.0
15.8114 -0.4 0.0
18.638 -0.4 0.0
21.9699 -0.4 0.0
25.8974 -0.4 0.0
30.527 -0.4 0.0
35.9843 -0.4 0.0
42.4171 -0.4 0.0
50 -0.4 0.0
0 -0.5333 0.0
0.1667 -0.5333 0.0
0.3333 -0.5333 0.0
0.5 -0.5333 0.0
0.6667 -0.5333 0.0
0.8333 -0.5333 0.0
1 -0.5333 0.0
1.1667 -0.5333 0.0
1.3333 -0.5333 0.0
1.5 -0.5333 0.0
1.6667 -0.5333 0.0
1.8333 -0.5333 0.0
2 -0.5333 0.0
2.1667 -0.5333 0.0
2.3333 -0.5333 0.0
2.5 -0.5333 0.0
2.6667 -0.5333 0.0
2.8333 -0.5333 0.0
3 -0.5333 0.0
3.1667 -0.5333 0.0
3.3333 -0.5333 0.0
3.5 -0.5333 0.0
3.6667 -0.5333 0.0
3.8333 -0.5333 0.0
4 -0.5333 0.0
4.1667 -0.5333 0.0
4.3333 -0.5333 0.0
4.5 -0.5333 0.0
4.6667 -0.5333 0.0
4.8333 -0.5333 0.0
5 -0.5333 0.0
5.4469 -0.5333 0.0
5.8938 -0.5333 0.0
6.4207 -0.5333 0.0
6.9475 -0.5333 0.0
7.5685 -0.5333 0.0
8.1895 -0.5333 0.0
8.9215 -0.5333 0.0
9.6535 -0.5333 0.0
10.5164 -0.5333 0.0
11.3792 -0.5333 0.0
12.3964 -0.5333 0.0
13.4135 -0.5333 0.0
14.6124 -0.5333 0.0
15.8114 -0.5333 0.0
17.2247 -0.5333 0.0
18.638 -0.5333 0.0
20.3039 -0.5333 0.0
21.9699 -0.5333 0.0
23.9336 -0.5333 0.0
25.8974 -0.5333 0.0
28.2122 -0.5333 0.0
30.527 -0.5333 0.0
33.2556 -0.5333 0.0
35.9843 -0.5333 0.0
39.2007 -0.5333 0.0
42.4171 -0.5333 0.0
46.2086 -0.5333 0.0
50 -0.5333 0.0
0 -0.6667 0.0
0.3333 -0.6667 0.0
0.6667 -0.6667 0.0
1 -0.6667 0.0
1.3333 -0.6667 0.0
1.6667 -0.6667 0.0
2 -0.6667 0.0
2.3333 -0.6667 0.0
2.6667 -0.6667 0.0
3 -0.6667 0.0
3.3333 -0.6667 0.0
3.6667 -0.6667 0.0
4 -0.6667 0.0
4.3333 -0.6667 0.0
4.6667 -0.6667 0.0
5 -0.6667 0.0
5.8938 -0.6667 0.0
6.9475 -0.6667 0.0
8.1895 -0.6667 0.0
9.6535 -0.6667 0.0
11.3792 -0.6667 0.0
13.4135 -0.6667 0.0
15.8114 -0.6667 0.0
18.638 -0.6667 0.0
21.9699 -0.6667 0.0
25.8974 -0.6667 0.0
30.527 -0.6667 0.0
35.9843 -0.6667 0.0
42.4171 -0.6667 0.0
50 -0.6667 0.0
0 -0.8 0.0
0.1667 -0.8 0.0
0.3333 -0.8 0.0
0.5 -0.8 0.0
0.6667 -0.8 0.0
0.8333 -0.8 0.0
1 -0.8 0.0
1.1667 -0.8 0.0
1.3333 -0.8 0.0
1.5 -0.8 0.0
1.6667 -0.8 0.0
1.8333 -0.8 0.0
2 -0.8 0.0
2.1667 -0.8 0.0
2.3333 -0.8 0.0
2.5 -0.8 0.0
2.6667 -0.8 0.0
2.8333 -0.8 0.0
3 -0.8 0.0
3.1667 -0.8 0.0
3.3333 -0.8 0.0
3.5 -0.8 0.0
3.6667 -0.8 0.0
3.8333 -0.8 0.0
4 -0.8 0.0
4.1667 -0.8 0.0
4.3333 -0.8 0.0
4.5 -0.8 0.0
4.6667 -0.8 0.0
4.8333 -0.8 0.0
5 -0.8 0.0
5.4469 -0.8 0.0
5.8938 -0.8 0.0
6.4207 -0.8 0.0
6.9475 -0.8 0.0
7.5685 -0.8 0.0
8.1895 -0.8 0.0
8.9215 -0.8 0.0
9.6535 -0.8 0.0
10.5164 -0.8 0.0
11.3792 -0.8 0.0
12.3964 -0.8 0.0
13.4135 -0.8 0.0
14.6124 -0.8 0.0
15.8114 -0.8 0.0
17.2247 -0.8 0.0
18.638 -0.8 0.0
20.3039 -0.8 0.0
21.9699 -0.8 0.0
23.9336 -0.8 0.0
25.8974 -0.8 0.0
28.2122 -0.8 0.0
30.527 -0.8 0.0
33.2556 -0.8 0.0
35.9843 -0.8 0.0
39.2007 -0.8 0.0
42.4171 -0.8 0.0
46.2086 -0.8 0.0
50 -0.8 0.0
0 -0.9333 0.0
0.3333 -0.9333 0.0
0.6667 -0.9333 0.0
1 -0.9333 0.0
1.3333 -0.9333 0.0
1.6667 -0.9333 0.0
2 -0.9333 0.0
2.3333 -0.9333 0.0
2.6667 -0.9333 0.0
3 -0.9333 0.0
3.3333 -0.9333 0.0
3.6667 -0.9333 0.0
4 -0.9333 0.0
4.3333 -0.9333 0.0
4.6667 -0.9333 0.0
5 -0.9333 0.0
5.8938 -0.9333 0.0
6.9475 -0.9333 0.0
8.1895 -0.9333 0.0
9.6535 -0.9333 0.0
11.3792 -0.9333 0.0
13.4135 -0.9333 0.0
15.8114 -0.9333 0.0
18.638 -0.9333 0.0
21.9699 -0.9333 0.0
25.8974 -0.9333 0.0
30.527 -0.9333 0.0
35.9843 -0.9333 0.0
42.4171 -0.9333 0.0
50 -0.9333 0.0
0 -1.0667 0.0
0.1667 -1.0667 0.0
0.3333 -1.0667 0.0
0.5 -1.0667 0.0
0.6667 -1.0667 0.0
0.8333 -1.0667 0.0
1 -1.0667 0.0
1.1667 -1.0667 0.0
1.3333 -1.0667 0.0
1.5 -1.0667 0.0
1.6667 -1.0667 0.0
1.8333 -1.0667 0.0
2 -1.0667 0.0
2.1667 -1.0667 0.0
2.3333 -1.0667 0.0
2.5 -1.0667 0.0
2.6667 -1.0667 0.0
2.8333 -1.0667 0.0
3 -1.0667 0.0
3.1667 -1.0667 0.0
3.3333 -1.0667 0.0
3.5 -1.0667 0.0
3.6667 -1.0667 0.0
3.8333 -1.0667 0.0
4 -1.0667 0.0
4.1667 -1.0667 0.0
4.3333 -1.0667 0.0
4.5 -1.0667 0.0
4.6667 -1.0667 0.0
4.8333 -1.0667 0.0
5 -1.0667 0.0
5.4469 -1.0667 0.0
5.8938 -1.0667 0.0
6.4207 -1.0667 0.0
6.9475 -1.0667 0.0
7.5685 -1.0667 0.0
8.1895 -1.0667 0.0
8.9215 -1.0667 0.0
9.6535 -1.0667 0.0
10.5164 -1.0667 0.0
11.3792 -1.0667 0.0
12.3964 -1.0667 0.0
13.4135 -1.0667 0.0
14.6124 -1.0667 0.0
15.8114 -1.0667 0.0
17.2247 -1.0667 0.0
18.638 -1.0667 0.0
20.3039 -1.0667 0.0
21.9699 -1.0667 0.0
23.9336 -1.0667 0.0
25.8974 -1.0667 0.0
28.2122 -1.0667 0.0
30.527 -1.0667 0.0
33.2556 -1.0667 0.0
35.9843 -1.0667 0.0
39.2007 -1.0667 0.0
42.4171 -1.0667 0.0
46.2086 -1.0667 0.0
50 -1.0667 0.0
0 -1.2 0.0
0.3333 -1.2 0.0
0.6667 -1.2 0.0
1 -1.2 0.0
1.3333 -1.2 0.0
1.6667 -1.2 0.0
2 -1.2 0.0
2.3333 -1.2 0.0
2.6667 -1.2 0.0
3 -1.2 0.0
3.3333 -1.2 0.0
3.6667 -1.2 0.0
4 -1.2 0.0
4.3333 -1.2 0.0
4.6667 -1.2 0.0
5 -1.2 0.0
5.8938 -1.2 0.0
6.9475 -1.2 0.0
8.1895 -1.2 0.0
9.6535 -1.2 0.0
11.3792 -1.2 0.0
13.4135 -1.2 0.0
15.8114 -1.2 0.0
18.638 -1.2 0.0
21.9699 -1.2 0.0
25.8974 -1.2 0.0
30.527 -1.2 0.0
35.9843 -1.2 0.0
42.4171 -1.2 0.0
50 -1.2 0.0
0 -1.3333 0.0
0.1667 -1.3333 0.0
0.3333 -1.3333 0.0
0.5 -1.3333 0.0
0.6667 -1.3333 0.0
0.8333 -1.3333 0.0
1 -1.3333 0.0
1.1667 -1.3333 0.0
1.3333 -1.3333 0.0
1.5 -1.3333 0.0
1.6667 -1.3333 0.0
1.8333 -1.3333 0.0
2 -1.3333 0.0
2.1667 -1.3333 0.0
2.3333 -1.3333 0.0
2.5 -1.3333 0.0
2.6667 -1.3333 0.0
2.8333 -1.3333 0.0
3 -1.3333 0.0
3.1667 -1.3333 0.0
3.3333 -1.3333 0.0
3.5 -1.3333 0.0
3.6667 -1.3333 0.0
3.8333 -1.3333 0.0
4 -1.3333 0.0
4.1667 -1.3333 0.0
4.3333 -1.3333 0.0
4.5 -1.3333 0.0
4.6667 -1.3333 0.0
4.8333 -1.3333 0.0
5 -1.3333 0.0
5.4469 -1.3333 0.0
5.8938 -1.3333 0.0
6.4207 -1.3333 0.0
6.9475 -1.3333 0.0
7.5685 -1.3333 0.0
8.1895 -1.3333 0.0
8.9215 -1.3333 0.0
9.6535 -1.3333 0.0
10.5164 -1.3333 0.0
11.3792 -1.3333 0.0
12.3964 -1.3333 0.0
13.4135 -1.3333 0.0
14.6124 -1.3333 0.0
15.8114 -1.3333 0.0
17.2247 -1.3333 0.0
18.638 -1.3333 0.0
20.3039 -1.3333 0.0
21.9699 -1.3333 0.0
23.9336 -1.3333 0.0
25.8974 -1.3333 0.0
28.2122 -1.3333 0.0
30.527 -1.3333 0.0
33.2556 -1.3333 0.0
35.9843 -1.3333 0.0
39.2007 -1.3333 0.0
42.4171 -1.3333 0.0
46.2086 -1.3333 0.0
50 -1.3333 0.0
0 -1.4667 0.0
0.3333 -1.4667 0.0
0.6667 -1.4667 0.0
1 -1.4667 0.0
1.3333 -1.4667 0.0
1.6667 -1.4667 0.0
2 -1.4667 0.0
2.3333 -1.4667 0.0
2.6667 -1.4667 0.0
3 -1.4667 0.0
3.3333 -1.4667 0.0
3.6667 -1.4667 0.0
4 -1.4667 0.0
4.3333 -1.4667 0.0
4.6667 -1.4667 0.0
5 -1.4667 0.0
5.8938 -1.4667 0.0
6.9475 -1.4667 0.0
8.1895 -1.4667 0.0
9.6535 -1.4667 0.0
11.3792 -1.4667 0.0
13.4135 -1.4667 0.0
15.8114 -1.4667 0.0
18.638 -1.4667 0.0
21.9699 -1.4667 0.0
25.8974 -1.4667 0.0
30.527 -1.4667 0.0
35.9843 -1.4667 0.0
42.4171 -1.4667 0.0
50 -1.4667 0.0
0 -1.6 0.0
0.1667 -1.6 0.0
0.3333 -1.6 0.0
0.5 -1.6 0.0
0.6667 -1.6 0.0
0.8333 -1.6 0.0
1 -1.6 0.0
1.1667 -1.6 0.0
1.3333 -1.6 0.0
1.5 -1.6 0.0
1.6667 -1.6 0.0
1.8333 -1.6 0.0
2 -1.6 0.0
2.1667 -1.6 0.0
2.3333 -1.6 0.0
2.5 -1.6 0.0
2.6667 -1.6 0.0
2.8333 -1.6 0.0
3 -1.6 0.0
3.1667 -1.6 0.0
3.3333 -1.6 0.0
3.5 -1.6 0.0
3.6667 -1.6 0.0
3.8333 -1.6 0.0
4 -1.6 0.0
4.1667 -1.6 0.0
4.3333 -1.6 0.0
4.5 -1.6 0.0
4.6667 -1.6 0.0
4.8333 -1.6 0.0
5 -1.6 0.0
5.4469 -1.6 0.0
5.8938 -1.6 0.0
6.4207 -1.6 0.0
6.9475 -1.6 0.0
7.5685 -1.6 0.0
8.1895 -1.6 0.0
8.9215 -1.6 0.0
9.6535 -1.6 0.0
10.5164 -1.6 0.0
11.3792 -1.6 0.0
12.3964 -1.6 0.0
13.4135 -1.6 0.0
14.6124 -1.6 0.0
15.8114 -1.6 0.0
17.2247 -1.6 0.0
18.638 -1.6 0.0
20.3039 -1.6 0.0
21.9699 -1.6 0.0
23.9336 -1.6 0.0
25.8974 -1.6 0.0
28.2122 -1.6 0.0
30.527 -1.6 0.0
33.2556 -1.6 0.0
[...]
POINT_DATA 4064
SCALARS Displacement_R double 1
LOOKUP_TABLE default
0
-8.60998e-06
-1.72031e-05
-2.57799e-05
-3.43233e-05
-4.28177e-05
-5.12622e-05
-5.96411e-05
-6.7939e-05
-7.61551e-05
-8.42746e-05
-9.22823e-05
-0.000100179
-0.000107949
-0.000115579
-0.000123071
-0.000130411
-0.000137587
-0.0001446
-0.000151439
-0.000158094
-0.00016457
-0.000170855
-0.000176943
-0.000182829
-0.00018853
-0.000194011
-0.000199408
-0.000204506
-0.000209177
-0.000212923
-0.000217148
-0.000218554
-0.000220137
-0.00022046
-0.000219509
-0.000217304
-0.000213563
-0.000208851
-0.000202582
-0.00019583
-0.000187778
-0.000179744
-0.000170713
-0.00016204
-0.000152549
-0.000143542
-0.000133697
-0.000124281
-0.000113832
-0.000103689
-9.22549e-05
-8.10629e-05
-6.83921e-05
-5.60259e-05
-4.21381e-05
-2.87452e-05
-1.39607e-05
0
0
-1.57708e-05
-3.14618e-05
-4.69792e-05
-6.22443e-05
-7.71797e-05
-9.16962e-05
-0.00010572
-0.000119179
-0.000131991
-0.000144081
-0.000155368
-0.000165733
-0.000174995
-0.00018258
-0.000188002
-0.000200075
-0.000203953
-0.000202524
-0.000195699
-0.000184361
-0.000169923
-0.000153757
-0.00013665
-0.000118646
-9.92192e-05
-7.77169e-05
-5.37946e-05
-2.7631e-05
0
0
-7.19924e-06
-1.43833e-05
-2.1552e-05
-2.86899e-05
-3.57831e-05
-4.28298e-05
-4.98158e-05
-5.67267e-05
-6.35612e-05
-7.03046e-05
-7.69434e-05
-8.34753e-05
-8.98865e-05
-9.6163e-05
-0.000102302
-0.00010829
-0.000114112
-0.000119764
-0.00012523
-0.000130493
-0.000135545
-0.000140362
-0.000144925
-0.000149196
-0.000153149
-0.000156701
-0.000159825
-0.000162353
-0.000164317
-0.000166897
-0.000175461
-0.000181714
-0.000185716
-0.000187897
-0.000188637
-0.000187985
-0.00018587
-0.000182715
-0.000178125
-0.000172983
-0.000166603
-0.000160151
-0.000152695
-0.0001455
-0.000137441
-0.000129775
-0.000121221
-0.000113022
-0.000103764
-9.4758e-05
-8.44648e-05
-7.43766e-05
-6.28333e-05
-5.15663e-05
-3.88085e-05
-2.65179e-05
-1.28715e-05
0
0
-1.30407e-05
-2.60077e-05
-3.88148e-05
-5.1388e-05
-6.36525e-05
-7.55216e-05
-8.69178e-05
-9.77592e-05
-0.000107947
-0.000117376
-0.000125914
-0.000133365
-0.000139451
-0.00014394
-0.00014829
-0.000164117
-0.000172176
-0.000173721
-0.000169903
-0.000161707
-0.000150432
-0.00013727
-0.000122915
-0.000107409
-9.03044e-05
-7.10406e-05
-4.93392e-05
-2.54039e-05
0
0
-5.87679e-06
-1.17401e-05
-1.7589e-05
-2.34094e-05
-2.91894e-05
-3.49258e-05
-4.06063e-05
-4.62175e-05
-5.1757e-05
-5.72113e-05
-6.25678e-05
-6.78223e-05
-7.29619e-05
-7.79723e-05
-8.28493e-05
-8.75771e-05
-9.21422e-05
-9.65344e-05
-0.00010074
-0.000104735
-0.000108512
-0.00011204
-0.000115307
-0.000118279
-0.000120933
-0.000123241
-0.000125256
-0.000127116
-0.000129054
-0.000131392
-0.000139515
-0.000147249
-0.000153202
-0.000156806
-0.000159053
-0.000159707
-0.000159035
-0.000157249
-0.000154206
-0.000150525
-0.000145747
-0.000140766
-0.000134867
-0.000129072
-0.000122455
-0.000116075
-0.000108833
-0.000101811
-9.37618e-05
-8.58623e-05
-7.67234e-05
-6.77125e-05
-5.73073e-05
-4.71167e-05
-3.54982e-05
-2.42919e-05
-1.17892e-05
0
0
-1.04786e-05
-2.08895e-05
-3.11547e-05
-4.1205e-05
-5.09692e-05
-6.03649e-05
-6.93147e-05
-7.77344e-05
-8.55229e-05
-9.25732e-05
-9.8761e-05
-0.000103947
-0.000108078
-0.000111526
-0.000115613
-0.000131119
-0.000141854
-0.000145928
-0.000144745
-0.000139428
-0.000131146
-0.000120898
-0.00010925
-9.62224e-05
-8.14256e-05
-6.43871e-05
-4.48945e-05
-2.31789e-05
0
0
-4.63397e-06
-9.25619e-06
-1.38649e-05
-1.84479e-05
-2.29948e-05
-2.75016e-05
-3.19577e-05
-3.6351e-05
-4.06784e-05
-4.49275e-05
-4.90873e-05
-5.31523e-05
-5.71109e-05
-6.09498e-05
-6.4664e-05
-6.82385e-05
-7.16614e-05
-7.49225e-05
-7.80095e-05
-8.09045e-05
-8.36012e-05
-8.60828e-05
-8.8343e-05
-9.03787e-05
-9.21975e-05
-9.38521e-05
-9.53986e-05
-9.69952e-05
-9.87891e-05
-0.000100898
-0.000108138
-0.000115737
-0.000122603
-0.00012725
-0.000130641
-0.000132388
-0.000132956
-0.000132391
-0.000130754
-0.000128426
-0.000125161
-0.000121584
-0.000117196
-0.000112761
-0.000107568
-0.00010245
-9.65132e-05
-9.06525e-05
-8.38115e-05
-7.70033e-05
-6.90194e-05
-6.10717e-05
-5.18058e-05
-4.26784e-05
-3.22019e-05
-2.20686e-05
-1.07122e-05
0
0
-8.06978e-06
-1.60788e-05
-2.3958e-05
-3.16446e-05
-3.90734e-05
-4.61698e-05
-5.28621e-05
-5.90736e-05
-6.47174e-05
-6.9711e-05
-7.3983e-05
-7.75114e-05
-8.04499e-05
-8.33176e-05
-8.69782e-05
-0.000101034
-0.000113031
-0.000119068
-0.000120179
-0.00011751
-0.000112073
-0.000104654
-9.56696e-05
-8.50969e-05
-7.25911e-05
-5.77627e-05
-4.04655e-05
-2.09589e-05
0
0
-3.46317e-06
-6.9164e-06
-1.03575e-05
-1.3776e-05
-1.71632e-05
-2.05149e-05
-2.3822e-05
-2.70742e-05
-3.0268e-05
-3.33927e-05
-3.64391e-05
-3.94013e-05
-4.22699e-05
-4.50333e-05
-4.76871e-05
-5.02191e-05
-5.26203e-05
-5.48835e-05
-5.70007e-05
-5.89629e-05
-6.07691e-05
-6.2418e-05
-6.39143e-05
-6.52805e-05
-6.65423e-05
-6.77609e-05
-6.90011e-05
-7.03627e-05
-7.19337e-05
-7.37693e-05
-8.00256e-05
-8.69381e-05
-9.39069e-05
-9.91274e-05
-0.000103324
-0.000105939
-0.000107566
-0.000108083
-0.000107727
-0.000106663
-0.00010483
-0.000102601
-9.9678e-05
-9.65705e-05
-9.27787e-05
-8.89043e-05
-8.42635e-05
-7.95515e-05
-7.3913e-05
-6.81862e-05
-6.13525e-05
-5.44585e-05
-4.63287e-05
-3.82551e-05
-2.89193e-05
-1.98503e-05
-9.64008e-06
0
0
-5.79555e-06
-1.15387e-05
-1.71711e-05
-2.26383e-05
-2.7884e-05
-3.28451e-05
-3.74617e-05
-4.16726e-05
-4.54167e-05
-4.86502e-05
-5.13653e-05
-5.36362e-05
-5.57047e-05
-5.80317e-05
-6.11558e-05
-7.33898e-05
-8.55681e-05
-9.30173e-05
-9.61192e-05
-9.59002e-05
-9.31831e-05
-8.85227e-05
-8.21642e-05
-7.40247e-05
-6.37949e-05
-5.11635e-05
-3.60501e-05
-1.87436e-05
0
0
-2.35592e-06
-4.70389e-06
-7.04147e-06
-9.36029e-06
-1.16534e-05
-1.39166e-05
-1.61428e-05
-1.83237e-05
-2.04558e-05
-2.25307e-05
-2.45409e-05
-2.64816e-05
-2.83454e-05
-3.01239e-05
-3.18136e-05
-3.34067e-05
-3.48976e-05
-3.62835e-05
-3.75614e-05
-3.8731e-05
-3.97968e-05
-4.07691e-05
-4.16609e-05
-4.25037e-05
-4.33271e-05
-4.41859e-05
-4.5132e-05
-4.62281e-05
-4.75251e-05
-4.9053e-05
-5.42963e-05
-6.03251e-05
-6.69199e-05
-7.23013e-05
-7.69934e-05
-8.02684e-05
-8.27859e-05
-8.42638e-05
-8.50844e-05
-8.52052e-05
-8.47369e-05
-8.38076e-05
-8.23091e-05
-8.05023e-05
-7.8089e-05
-7.54431e-05
-7.20854e-05
-6.85119e-05
-6.40677e-05
-5.94138e-05
-5.37237e-05
-4.78754e-05
-4.08763e-05
-3.38491e-05
-2.56505e-05
-1.76387e-05
-8.57273e-06
0
0
-3.63811e-06
-7.23406e-06
-1.07417e-05
-1.41174e-05
-1.73166e-05
-2.02911e-05
-2.29967e-05
-2.53932e-05
-2.74495e-05
-2.91611e-05
-3.05711e-05
-3.18061e-05
-3.31153e-05
-3.48567e-05
-3.73682e-05
-4.76564e-05
-5.93034e-05
-6.76792e-05
-7.25038e-05
-7.45684e-05
-7.44676e-05
-7.25038e-05
-6.87364e-05
-6.30091e-05
-5.50396e-05
-4.45915e-05
-3.16503e-05
-1.65344e-05
0
0
-1.30139e-06
-2.59702e-06
-3.88447e-06
-5.15765e-06
-6.4116e-06
-7.6426e-06
-8.84554e-06
-1.00145e-05
-1.11463e-05
-1.22352e-05
-1.32761e-05
-1.42653e-05
-1.5198e-05
-1.60693e-05
-1.68773e-05
-1.76183e-05
-1.82908e-05
-1.88958e-05
-1.9435e-05
-1.99145e-05
-2.03427e-05
-2.07358e-05
-2.11108e-05
-2.14982e-05
-2.19267e-05
-2.24383e-05
-2.30721e-05
-2.38673e-05
-2.48545e-05
-2.605e-05
-3.0275e-05
-3.53568e-05
-4.13175e-05
-4.65595e-05
-5.14854e-05
-5.52419e-05
-5.85043e-05
-6.08424e-05
-6.27537e-05
-6.39978e-05
-6.48407e-05
-6.51728e-05
-6.50661e-05
-6.45372e-05
-6.34838e-05
-6.20531e-05
-5.99675e-05
-5.75239e-05
-5.42663e-05
-5.06784e-05
-4.61256e-05
-4.13167e-05
-3.54434e-05
-2.9457e-05
-2.23921e-05
-1.54326e-05
-7.50895e-06
0
0
-1.57697e-06
-3.12374e-06
-4.60834e-06
-5.99999e-06
-7.26789e-06
-8.38128e-06
-9.31419e-06
-1.00486e-05
-1.0582e-05
-1.09418e-05
-1.12027e-05
-1.15084e-05
-1.20797e-05
-1.31815e-05
-1.50286e-05
-2.33472e-05
-3.4033e-05
-4.29404e-05
-4.92655e-05
-5.34828e-05
-5.59157e-05
-5.65967e-05
-5.53885e-05
-5.20524e-05
-4.6327e-05
-3.80485e-05
-2.72675e-05
-1.43323e-05
0
0
-2.88712e-07
-5.74068e-07
-8.53876e-07
-1.12457e-06
-1.38335e-06
-1.62721e-06
-1.85332e-06
-2.0583e-06
-2.2398e-06
-2.39462e-06
-2.52038e-06
-2.61464e-06
-2.67562e-06
-2.70181e-06
-2.69273e-06
-2.64893e-06
-2.57208e-06
-2.46629e-06
-2.33674e-06
-2.19345e-06
-2.04672e-06
-1.91453e-06
-1.81453e-06
-1.77301e-06
-1.81467e-06
-1.9706e-06
-2.26897e-06
-2.73469e-06
-3.38682e-06
-4.23369e-06
-7.44762e-06
-1.15764e-05
-1.67739e-05
-2.1683e-05
-2.66454e-05
-3.07398e-05
-3.4631e-05
-3.77506e-05
-4.06878e-05
-4.30085e-05
-4.51221e-05
-4.66856e-05
-4.79446e-05
-4.86746e-05
-4.89644e-05
-4.87367e-05
-4.79122e-05
-4.65899e-05
-4.45107e-05
-4.19817e-05
-3.85595e-05
-3.47841e-05
-3.00309e-05
-2.50801e-05
-1.91449e-05
-1.32329e-05
-6.4488e-06
0
0
4.13349e-07
8.43273e-07
1.30602e-06
1.81785e-06
2.39406e-06
3.04682e-06
3.78327e-06
4.6003e-06
5.47614e-06
6.3614e-06
7.16617e-06
7.7505e-06
7.93149e-06
7.51691e-06
6.3689e-06
-1.92021e-09
-9.495e-06
-1.86475e-05
-2.63081e-05
-3.25869e-05
-3.74952e-05
-4.07824e-05
-4.21077e-05
-4.11446e-05
-3.76491e-05
-3.15285e-05
-2.2898e-05
-1.2136e-05
0
0
6.94348e-07
1.38947e-06
2.08714e-06
2.7882e-06
3.49316e-06
4.20405e-06
4.92132e-06
5.64558e-06
6.37835e-06
7.11992e-06
7.87008e-06
8.62975e-06
9.39795e-06
1.0173e-05
1.09539e-05
1.17367e-05
1.25171e-05
1.3289e-05
1.40449e-05
1.47728e-05
1.54621e-05
1.60952e-05
1.66555e-05
1.71219e-05
1.7474e-05
1.76891e-05
1.77473e-05
1.76326e-05
1.73327e-05
1.68442e-05
1.46249e-05
1.14267e-05
7.04051e-06
2.57087e-06
-2.29945e-06
-6.63046e-06
-1.10689e-05
-1.49164e-05
-1.88368e-05
-2.22037e-05
-2.55607e-05
-2.83345e-05
-3.09394e-05
-3.2913e-05
-3.45318e-05
-3.54958e-05
-3.59219e-05
-3.5712e-05
-3.48027e-05
-3.33256e-05
-3.10268e-05
-2.82788e-05
-2.46399e-05
-2.07195e-05
-1.59093e-05
-1.10406e-05
-5.39235e-06
0
0
2.35851e-06
4.71867e-06
7.0797e-06
9.44218e-06
1.18049e-05
1.41611e-05
1.64996e-05
1.87984e-05
2.10166e-05
2.30912e-05
2.49283e-05
2.64006e-05
2.73617e-05
2.76729e-05
2.72451e-05
2.27709e-05
1.45594e-05
5.33521e-06
-3.55866e-06
-1.18466e-05
-1.91947e-05
-2.50597e-05
-2.8896e-05
-3.0288e-05
-2.90077e-05
-2.50327e-05
-1.8543e-05
-9.94608e-06
0
0
1.66232e-06
3.32271e-06
4.98233e-06
6.63921e-06
8.29142e-06
9.9399e-06
1.15826e-05
1.32172e-05
1.48444e-05
1.64615e-05
1.80656e-05
1.96564e-05
2.12301e-05
2.27821e-05
2.43104e-05
2.58082e-05
2.72689e-05
2.86858e-05
3.00494e-05
3.13473e-05
3.25693e-05
3.36994e-05
3.47224e-05
3.56223e-05
3.63822e-05
3.69857e-05
3.74189e-05
3.76713e-05
3.77351e-05
3.76097e-05
3.63618e-05
3.40554e-05
3.04748e-05
2.64827e-05
2.1767e-05
1.72536e-05
1.23102e-05
7.75997e-06
2.87466e-06
-1.52569e-06
-6.11385e-06
-1.0087e-05
-1.40264e-05
-1.72333e-05
-2.01706e-05
-2.23176e-05
-2.39851e-05
-2.48802e-05
-2.51334e-05
-2.47018e-05
-2.35203e-05
-2.17948e-05
-1.92652e-05
-1.63715e-05
-1.26823e-05
-8.85389e-06
-4.33851e-06
0
0
4.28651e-06
8.55879e-06
1.27982e-05
1.69889e-05
2.11128e-05
2.51441e-05
2.90545e-05
3.28056e-05
3.63414e-05
3.95911e-05
4.24625e-05
4.48433e-05
4.66176e-05
4.76852e-05
4.79886e-05
4.53364e-05
3.83866e-05
2.91519e-05
1.9058e-05
8.7724e-06
-1.00212e-06
-9.42699e-06
-1.57553e-05
-1.94846e-05
-2.04044e-05
-1.85625e-05
-1.42034e-05
-7.76346e-06
0
0
2.62964e-06
5.25453e-06
7.87518e-06
1.04867e-05
1.30846e-05
1.56687e-05
1.82342e-05
2.07762e-05
2.32942e-05
2.57828e-05
2.82363e-05
3.06532e-05
3.30271e-05
3.5351e-05
3.76215e-05
3.98301e-05
4.19679e-05
4.40283e-05
4.60005e-05
4.78719e-05
4.96334e-05
5.12706e-05
5.27697e-05
5.4119e-05
5.53044e-05
5.63139e-05
5.71379e-05
5.77696e-05
5.82039e-05
5.8442e-05
5.81341e-05
5.66655e-05
5.38432e-05
5.03102e-05
4.57496e-05
4.10592e-05
3.56114e-05
3.03542e-05
2.44978e-05
1.90597e-05
1.32391e-05
8.06859e-06
2.79966e-06
-1.63418e-06
-5.88194e-06
-9.2038e-06
-1.21042e-05
-1.40966e-05
-1.55046e-05
-1.6112e-05
-1.60415e-05
-1.53333e-05
-1.39079e-05
-1.20369e-05
-9.46459e-06
-6.67367e-06
-3.28739e-06
0
0
6.22922e-06
1.24278e-05
1.85589e-05
2.45897e-05
3.0485e-05
3.62008e-05
4.16922e-05
4.69061e-05
5.17743e-05
5.62207e-05
6.01569e-05
6.34835e-05
6.61083e-05
6.79584e-05
6.89967e-05
6.80699e-05
6.22724e-05
5.29785e-05
4.16434e-05
2.93275e-05
1.71147e-05
6.13469e-06
-2.67259e-06
-8.72445e-06
-1.18311e-05
-1.21119e-05
-9.87555e-06
-5.58654e-06
0
0
3.61146e-06
7.21529e-06
1.08114e-05
1.43918e-05
1.79495e-05
2.14832e-05
2.49855e-05
2.84485e-05
3.18708e-05
3.52441e-05
3.85603e-05
4.18165e-05
4.5004e-05
4.81131e-05
5.114e-05
5.40739e-05
5.69044e-05
5.96247e-05
6.22232e-05
6.46872e-05
6.70086e-05
6.91743e-05
7.11716e-05
7.2992e-05
7.46235e-05
7.60572e-05
7.72864e-05
7.83068e-05
7.91148e-05
7.97133e-05
8.03039e-05
7.96034e-05
7.74557e-05
7.43128e-05
6.98488e-05
6.49369e-05
5.89417e-05
5.29425e-05
4.60835e-05
3.95865e-05
3.25186e-05
2.6144e-05
1.9544e-05
1.38859e-05
8.33346e-06
3.8436e-06
-2.81314e-07
-3.36348e-06
-5.91799e-06
-7.558e-06
-8.59165e-06
-8.89568e-06
-8.56889e-06
-7.71715e-06
-6.25674e-06
-4.50079e-06
-2.23906e-06
0
0
8.21752e-06
1.6388e-05
2.44561e-05
3.23724e-05
4.00847e-05
4.75306e-05
5.46495e-05
6.13744e-05
6.76253e-05
7.33214e-05
7.83764e-05
8.27002e-05
8.6217e-05
8.88725e-05
9.06432e-05
9.13172e-05
8.64775e-05
7.69669e-05
6.42734e-05
4.9852e-05
3.5167e-05
2.16266e-05
1.035e-05
1.99019e-06
-3.28968e-06
-5.6824e-06
-5.56064e-06
-3.41625e-06
0
0
4.62444e-06
9.2384e-06
1.38411e-05
1.84217e-05
2.29707e-05
2.74855e-05
3.19562e-05
3.6372e-05
4.07306e-05
4.50209e-05
4.92321e-05
5.33604e-05
5.73944e-05
6.13221e-05
6.5139e-05
6.88322e-05
7.23895e-05
7.58043e-05
7.90636e-05
8.21546e-05
8.50698e-05
8.77967e-05
9.03231e-05
9.26431e-05
9.47456e-05
9.66236e-05
9.82726e-05
9.96897e-05
0.000100873
0.000101825
0.000103263
0.000103242
0.000101648
9.87789e-05
9.42944e-05
8.90659e-05
8.24342e-05
7.56254e-05
6.77057e-05
6.01106e-05
5.17658e-05
4.41706e-05
3.62301e-05
2.93455e-05
2.24907e-05
1.68373e-05
1.14948e-05
7.3291e-06
3.63547e-06
9.68105e-07
-1.16345e-06
-2.47627e-06
-3.24305e-06
-3.40856e-06
-3.05557e-06
-2.33383e-06
-1.19238e-06
0
0
1.02827e-05
2.05024e-05
3.05858e-05
4.0467e-05
5.00774e-05
5.93362e-05
6.8167e-05
7.64885e-05
8.4208e-05
9.12376e-05
9.74897e-05
0.000102878
0.000107335
0.000110819
0.000113313
0.000115428
0.000111263
0.000101269
8.70221e-05
7.03781e-05
5.31656e-05
3.70498e-05
2.33104e-05
1.26569e-05
5.21791e-06
7.24348e-07
-1.26025e-06
-1.25374e-06
0
0
5.68421e-06
1.13551e-05
1.70116e-05
2.26397e-05
2.82276e-05
3.37716e-05
3.92594e-05
4.46771e-05
5.00219e-05
5.52795e-05
6.04368e-05
6.54887e-05
7.04214e-05
7.52204e-05
7.98801e-05
8.43856e-05
8.87225e-05
9.28841e-05
9.68556e-05
0.000100623
0.00010418
0.000107513
0.000110609
0.000113465
0.000116068
0.000118414
0.000120499
0.000122321
0.000123878
0.000125176
0.000127392
0.000127938
0.000126735
0.000123972
0.000119289
0.000113597
0.000106194
9.84759e-05
8.94122e-05
8.06632e-05
7.09992e-05
6.21586e-05
5.28627e-05
4.47453e-05
3.65888e-05
2.97747e-05
2.32224e-05
1.79783e-05
1.31544e-05
9.46395e-06
6.24217e-06
3.92292e-06
2.06907e-06
8.87023e-07
1.3865e-07
-1.74108e-07
-1.47287e-07
0
0
1.2458e-05
2.48383e-05
3.70501e-05
4.90124e-05
6.06402e-05
7.18346e-05
8.25028e-05
9.25477e-05
0.000101861
0.000110343
0.0001179
0.00012444
0.000129899
0.000134237
0.000137442
0.000140794
0.000136922
0.00012606
0.000109986
9.0959e-05
7.11399e-05
5.24212e-05
3.62196e-05
2.32839e-05
1.36981e-05
7.11288e-06
3.0282e-06
9.01829e-07
0
0
6.8059e-06
1.35959e-05
2.03685e-05
2.71072e-05
3.37976e-05
4.04353e-05
4.70056e-05
5.34918e-05
5.98902e-05
6.6184e-05
7.23573e-05
7.84039e-05
8.43074e-05
9.00502e-05
9.5626e-05
0.000101017
0.000106207
0.000111187
0.00011594
0.000120452
0.000124714
0.000128712
0.000132431
0.000135869
0.000139013
0.000141857
0.000144398
0.000146633
0.000148562
0.000150189
0.000153101
0.000154065
0.000153041
0.000150156
0.000145032
0.000138677
0.000130319
0.000121563
0.000111247
0.000101273
9.02361e-05
8.01161e-05
6.94461e-05
6.00839e-05
5.06277e-05
4.26515e-05
3.49004e-05
2.85797e-05
2.26383e-05
1.79258e-05
1.3625e-05
1.02987e-05
7.36747e-06
5.16691e-06
3.32606e-06
1.97657e-06
8.96388e-07
0
0
1.47733e-05
2.94557e-05
4.39412e-05
5.81344e-05
7.19355e-05
8.52271e-05
9.78993e-05
0.000109837
0.000120911
0.000131006
0.000140009
0.000147818
0.000154357
0.000159583
0.000163484
0.000167811
0.000163725
0.000151484
0.000133228
0.000111616
8.90916e-05
6.77338e-05
4.90689e-05
3.38639e-05
2.21451e-05
1.34786e-05
7.30106e-06
3.04818e-06
0
0
8.00507e-06
1.59918e-05
2.3959e-05
3.18872e-05
3.97603e-05
4.75732e-05
5.5309e-05
6.29482e-05
7.0487e-05
7.79052e-05
8.5185e-05
9.23183e-05
9.92866e-05
0.000106069
0.000112657
0.00011903
0.000125169
0.000131063
0.000136693
0.000142038
0.000147091
0.000151833
0.000156247
0.00016033
0.000164065
0.000167446
0.000170469
0.000173134
0.000175435
0.00017738
0.000180859
0.000182072
0.000180925
0.000177636
0.000171748
0.000164469
0.000154934
0.000144966
0.000133281
0.000121978
0.000109519
9.80585e-05
8.60087e-05
7.53661e-05
6.46277e-05
5.54691e-05
4.65447e-05
3.91347e-05
3.20997e-05
2.63553e-05
2.0995e-05
1.66522e-05
1.26593e-05
9.43133e-06
6.51111e-06
4.11785e-06
1.94024e-06
0
0
1.58257e-05
3.1551e-05
4.70594e-05
6.22471e-05
7.70069e-05
9.12151e-05
0.000104758
0.00011752
0.000129375
0.00014021
0.000149924
0.000158422
0.000165638
0.000171536
0.000176109
0.000182196
0.000179887
0.000168963
0.000151187
0.000129194
0.000105635
8.28639e-05
6.26319e-05
4.58026e-05
3.23426e-05
2.16696e-05
1.31049e-05
6.08435e-06
0
0
7.78518e-06
1.55514e-05
2.32968e-05
3.10012e-05
3.86485e-05
4.62325e-05
5.3737e-05
6.11419e-05
6.84443e-05
7.56239e-05
8.26647e-05
8.95591e-05
9.62911e-05
0.000102841
0.000109204
0.000115362
0.0001213
0.000127009
0.000132477
0.000137686
0.000142633
0.000147305
0.000151691
0.000155788
0.000159587
0.000163084
0.000166276
0.000169164
0.000171745
0.000174027
0.000178687
0.000181355
0.000182211
0.000180979
0.000177446
0.000172233
0.00016472
0.000156316
0.000145955
0.000135568
0.00012374
0.000112643
0.000100691
9.00262e-05
7.90392e-05
6.96214e-05
6.02312e-05
5.23867e-05
4.46825e-05
3.82843e-05
3.19662e-05
2.66559e-05
2.13216e-05
1.67575e-05
1.20972e-05
8.03916e-06
3.82436e-06
0
0
1.51965e-05
3.02925e-05
4.51733e-05
5.97377e-05
7.38842e-05
8.74991e-05
0.000100483
0.000112738
0.000124162
0.00013467
0.000144188
0.000152648
0.000160009
0.000166249
0.000171365
0.000179779
0.000181159
0.000174499
0.000160503
0.000141181
0.000119111
9.68519e-05
7.64248e-05
5.8874e-05
4.41706e-05
3.16025e-05
2.03776e-05
9.97158e-06
0
0
7.40419e-06
1.47902e-05
2.21561e-05
2.94829e-05
3.67548e-05
4.39666e-05
5.11024e-05
5.81443e-05
6.5089e-05
7.19191e-05
7.8619e-05
8.51837e-05
9.1598e-05
9.78459e-05
0.000103924
0.000109817
0.000115511
0.000121003
0.00012628
0.00013133
0.000136152
0.000140735
0.00014507
0.000149157
0.00015299
0.000156563
0.000159879
0.000162935
0.000165729
0.000168268
0.000173818
0.00017764
0.000180092
0.000180609
0.000179152
0.00017593
0.000170508
0.000163882
0.000155218
0.000146131
0.000135437
0.000125111
0.00011375
0.000103395
9.25543e-05
8.30852e-05
7.34915e-05
6.52995e-05
5.7076e-05
5.00297e-05
4.28401e-05
3.65321e-05
2.99229e-05
2.39856e-05
1.76519e-05
1.18971e-05
5.70191e-06
0
0
1.43511e-05
2.86087e-05
4.26664e-05
5.64319e-05
6.9814e-05
8.2712e-05
9.50407e-05
0.000106719
0.000117662
0.000127804
0.000137089
0.000145463
0.000152897
0.000159376
0.000164892
0.000175101
0.000179508
0.000176698
0.000166591
0.000150507
0.000130692
0.000109678
8.96109e-05
7.16679e-05
5.58671e-05
4.14511e-05
2.75853e-05
1.38158e-05
0
0
6.95656e-06
1.38965e-05
2.08182e-05
2.77045e-05
3.45408e-05
4.1323e-05
4.80363e-05
5.4665e-05
6.12064e-05
6.76452e-05
7.39674e-05
8.01696e-05
8.62382e-05
9.21597e-05
9.79317e-05
0.000103542
0.000108977
0.000114238
0.000119312
0.000124189
0.00012887
0.000133346
0.000137609
0.00014166
0.000145494
0.000149106
0.000152498
0.000155668
0.000158613
0.00016134
0.000167568
0.000172287
0.000176026
0.000177994
0.000178346
0.000176939
0.000173538
0.000168744
0.000161939
0.000154394
0.000145143
0.000135913
0.000125478
0.000115742
0.000105324
9.60318e-05
8.64092e-05
7.80005e-05
6.93357e-05
6.16966e-05
5.36548e-05
4.63674e-05
3.84835e-05
3.11816e-05
2.31787e-05
1.57319e-05
7.57163e-06
0
0
1.34387e-05
2.67942e-05
3.99716e-05
5.28896e-05
6.54688e-05
7.76217e-05
8.92761e-05
0.000100365
0.000110816
0.000120577
0.000129603