# vtk DataFile Version 2.0
./vtk
ASCII

DATASET UNSTRUCTURED_GRID
POINTS 889 double
0 0 0.0
0.5 0 0.0
1 0 0.0
1.5 0 0.0
2 0 0.0
2.5 0 0.0
3 0 0.0
3.5 0 0.0
4 0 0.0
4.5 0 0.0
5 0 0.0
6.9457 0 0.0
8.8914 0 0.0
12.3514 0 0.0
15.8114 0 0.0
21.9642 0 0.0
28.1171 0 0.0
39.0585 0 0.0
50 0 0.0
0 -0.5 0.0
1 -0.5 0.0
2 -0.5 0.0
3 -0.5 0.0
4 -0.5 0.0
5 -0.5 0.0
8.8914 -0.5 0.0
15.8114 -0.5 0.0
28.1171 -0.5 0.0
50 -0.5 0.0
0 -1 0.0
0.5 -1 0.0
1 -1 0.0
1.5 -1 0.0
2 -1 0.0
2.5 -1 0.0
3 -1 0.0
3.5 -1 0.0
4 -1 0.0
4.5 -1 0.0
5 -1 0.0
6.9457 -1 0.0
8.8914 -1 0.0
12.3514 -1 0.0
15.8114 -1 0.0
21.9642 -1 0.0
28.1171 -1 0.0
39.0585 -1 0.0
50 -1 0.0
0 -1.5 0.0
1 -1.5 0.0
2 -1.5 0.0
3 -1.5 0.0
4 -1.5 0.0
5 -1.5 0.0
8.8914 -1.5 0.0
15.8114 -1.5 0.0
28.1171 -1.5 0.0
50 -1.5 0.0
0 -2 0.0
0.5 -2 0.0
1 -2 0.0
1.5 -2 0.0
2 -2 0.0
2.5 -2 0.0
3 -2 0.0
3.5 -2 0.0
4 -2 0.0
4.5 -2 0.0
5 -2 0.0
6.9457 -2 0.0
8.8914 -2 0.0
12.3514 -2 0.0
15.8114 -2 0.0
21.9642 -2 0.0
28.1171 -2 0.0
39.0585 -2 0.0
50 -2 0.0
0 -2.5 0.0
1 -2.5 0.0
2 -2.5 0.0
3 -2.5 0.0
4 -2.5 0.0
5 -2.5 0.0
8.8914 -2.5 0.0
15.8114 -2.5 0.0
28.1171 -2.5 0.0
50 -2.5 0.0
0 -3 0.0
0.5 -3 0.0
1 -3 0.0
1.5 -3 0.0
2 -3 0.0
2.5 -3 0.0
3 -3 0.0
3.5 -3 0.0
4 -3 0.0
4.5 -3 0.0
5 -3 0.0
6.9457 -3 0.0
8.8914 -3 0.0
12.3514 -3 0.0
15.8114 -3 0.0
21.9642 -3 0.0
28.1171 -3 0.0
39.0585 -3 0.0
50 -3 0.0
0 -3.5 0.0
1 -3.5 0.0
2 -3.5 0.0
3 -3.5 0.0
4 -3.5 0.0
5 -3.5 0.0
8.8914 -3.5 0.0
15.8114 -3.5 0.0
28.1171 -3.5 0.0
50 -3.5 0.0
0 -4 0.0
0.5 -4 0.0
1 -4 0.0
1.5 -4 0.0
2 -4 0.0
2.5 -4 0.0
3 -4 0.0
3.5 -4 0.0
4 -4 0.0
4.5 -4 0.0
5 -4 0.0
6.9457 -4 0.0
8.8914 -4 0.0
12.3514 -4 0.0
15.8114 -4 0.0
21.9642 -4 0.0
28.1171 -4 0.0
39.0585 -4 0.0
50 -4 0.0
0 -4.5 0.0
1 -4.5 0.0
2 -4.5 0.0
3 -4.5 0.0
4 -4.5 0.0
5 -4.5 0.0
8.8914 -4.5 0.0
15.8114 -4.5 0.0
28.1171 -4.5 0.0
50 -4.5 0.0
0 -5 0.0
0.5 -5 0.0
1 -5 0.0
1.5 -5 0.0
2 -5 0.0
2.5 -5 0.0
3 -5 0.0
3.5 -5 0.0
4 -5 0.0
4.5 -5 0.0
5 -5 0.0
6.9457 -5 0.0
8.8914 -5 0.0
12.3514 -5 0.0
15.8114 -5 0.0
21.9642 -5 0.0
28.1171 -5 0.0
39.0585 -5 0.0
50 -5 0.0
0 -5.5 0.0
1 -5.5 0.0
2 -5.5 0.0
3 -5.5 0.0
4 -5.5 0.0
5 -5.5 0.0
8.8914 -5.5 0.0
15.8114 -5.5 0.0
28.1171 -5.5 0.0
50 -5.5 0.0
0 -6 0.0
0.5 -6 0.0
1 -6 0.0
1.5 -6 0.0
2 -6 0.0
2.5 -6 0.0
3 -6 0.0
3.5 -6 0.0
4 -6 0.0
4.5 -6 0.0
5 -6 0.0
6.9457 -6 0.0
8.8914 -6 0.0
12.3514 -6 0.0
15.8114 -6 0.0
21.9642 -6 0.0
28.1171 -6 0.0
39.0585 -6 0.0
50 -6 0.0
0 -6.5 0.0
1 -6.5 0.0
2 -6.5 0.0
3 -6.5 0.0
4 -6.5 0.0
5 -6.5 0.0
8.8914 -6.5 0.0
15.8114 -6.5 0.0
28.1171 -6.5 0.0
50 -6.5 0.0
0 -7 0.0
0.5 -7 0.0
1 -7 0.0
1.5 -7 0.0
2 -7 0.0
2.5 -7 0.0
3 -7 0.0
3.5 -7 0.0
4 -7 0.0
4.5 -7 0.0
5 -7 0.0
6.9457 -7 0.0
8.8914 -7 0.0
12.3514 -7 0.0
15.8114 -7 0.0
21.9642 -7 0.0
28.1171 -7 0.0
39.0585 -7 0.0
50 -7 0.0
0 -7.5 0.0
1 -7.5 0.0
2 -7.5 0.0
3 -7.5 0.0
4 -7.5 0.0
5 -7.5 0.0
8.8914 -7.5 0.0
15.8114 -7.5 0.0
28.1171 -7.5 0.0
50 -7.5 0.0
0 -8 0.0
0.5 -8 0.0
1 -8 0.0
1.5 -8 0.0
2 -8 0.0
2.5 -8 0.0
3 -8 0.0
3.5 -8 0.0
4 -8 0.0
4.5 -8 0.0
5 -8 0.0
6.9457 -8 0.0
8.8914 -8 0.0
12.3514 -8 0.0
15.8114 -8 0.0
21.9642 -8 0.0
28.1171 -8 0.0
39.0585 -8 0.0
50 -8 0.0
0 -8.5 0.0
1 -8.5 0.0
2 -8.5 0.0
3 -8.5 0.0
4 -8.5 0.0
5 -8.5 0.0
8.8914 -8.5 0.0
15.8114 -8.5 0.0
28.1171 -8.5 0.0
50 -8.5 0.0
0 -9 0.0
0.5 -9 0.0
1 -9 0.0
1.5 -9 0.0
2 -9 0.0
2.5 -9 0.0
3 -9 0.0
3.5 -9 0.0
4 -9 0.0
4.5 -9 0.0
5 -9 0.0
6.9457 -9 0.0
8.8914 -9 0.0
12.3514 -9 0.0
15.8114 -9 0.0
21.9642 -9 0.0
28.1171 -9 0.0
39.0585 -9 0.0
50 -9 0.0
0 -9.5 0.0
1 -9.5 0.0
2 -9.5 0.0
3 -9.5 0.0
4 -9.5 0.0
5 -9.5 0.0
8.8914 -9.5 0.0
15.8114 -9.5 0.0
28.1171 -9.5 0.0
50 -9.5 0.0
0 -10 0.0
0.5 -10 0.0
1 -10 0.0
1.5 -10 0.0
2 -10 0.0
2.5 -10 0.0
3 -10 0.0
3.5 -10 0.0
4 -10 0.0
4.5 -10 0.0
5 -10 0.0
6.9457 -10 0.0
8.8914 -10 0.0
12.3514 -10 0.0
15.8114 -10 0.0
21.9642 -10 0.0
28.1171 -10 0.0
39.0585 -10 0.0
50 -10 0.0
0 -10.5 0.0
1 -10.5 0.0
2 -10.5 0.0
3 -10.5 0.0
4 -10.5 0.0
5 -10.5 0.0
8.8914 -10.5 0.0
15.8114 -10.5 0.0
28.1171 -10.5 0.0
50 -10.5 0.0
0 -11 0.0
0.5 -11 0.0
1 -11 0.0
1.5 -11 0.0
2 -11 0.0
2.5 -11 0.0
3 -11 0.0
3.5 -11 0.0
4 -11 0.0
4.5 -11 0.0
5 -11 0.0
6.9457 -11 0.0
8.8914 -11 0.0
12.3514 -11 0.0
15.8114 -11 0.0
21.9642 -11 0.0
28.1171 -11 0.0
39.0585 -11 0.0
50 -11 0.0
0 -11.5 0.0
1 -11.5 0.0
2 -11.5 0.0
3 -11.5 0.0
4 -11.5 0.0
5 -11.5 0.0
8.8914 -11.5 0.0
15.8114 -11.5 0.0
28.1171 -11.5 0.0
50 -11.5 0.0
0 -12 0.0
0.5 -12 0.0
1 -12 0.0
1.5 -12 0.0
2 -12 0.0
2.5 -12 0.0
3 -12 0.0
3.5 -12 0.0
4 -12 0.0
4.5 -12 0.0
5 -12 0.0
6.9457 -12 0.0
8.8914 -12 0.0
12.3514 -12 0.0
15.8114 -12 0.0
21.9642 -12 0.0
28.1171 -12 0.0
39.0585 -12 0.0
50 -12 0.0
0 -12.5 0.0
1 -12.5 0.0
2 -12.5 0.0
3 -12.5 0.0
4 -12.5 0.0
5 -12.5 0.0
8.8914 -12.5 0.0
15.8114 -12.5 0.0
28.1171 -12.5 0.0
50 -12.5 0.0
0 -13 0.0
0.5 -13 0.0
1 -13 0.0
1.5 -13 0.0
2 -13 0.0
2.5 -13 0.0
3 -13 0.0
3.5 -13 0.0
4 -13 0.0
4.5 -13 0.0
5 -13 0.0
6.9457 -13 0.0
8.8914 -13 0.0
12.3514 -13 0.0
15.8114 -13 0.0
21.9642 -13 0.0
28.1171 -13 0.0
39.0585 -13 0.0
50 -13 0.0
0 -13.5 0.0
1 -13.5 0.0
2 -13.5 0.0
3 -13.5 0.0
4 -13.5 0.0
5 -13.5 0.0
8.8914 -13.5 0.0
15.8114 -13.5 0.0
28.1171 -13.5 0.0
50 -13.5 0.0
0 -14 0.0
0.5 -14 0.0
1 -14 0.0
1.5 -14 0.0
2 -14 0.0
2.5 -14 0.0
3 -14 0.0
3.5 -14 0.0
4 -14 0.0
4.5 -14 0.0
5 -14 0.0
6.9457 -14 0.0
8.8914 -14 0.0
12.3514 -14 0.0
15.8114 -14 0.0
21.9642 -14 0.0
28.1171 -14 0.0
39.0585 -14 0.0
50 -14 0.0
0 -14.5 0.0
1 -14.5 0.0
2 -14.5 0.0
3 -14.5 0.0
4 -14.5 0.0
5 -14.5 0.0
8.8914 -14.5 0.0
15.8114 -14.5 0.0
28.1171 -14.5 0.0
50 -14.5 0.0
0 -15 0.0
0.5 -15 0.0
1 -15 0.0
1.5 -15 0.0
2 -15 0.0
2.5 -15 0.0
3 -15 0.0
3.5 -15 0.0
4 -15 0.0
4.5 -15 0.0
5 -15 0.0
6.9457 -15 0.0
8.8914 -15 0.0
12.3514 -15 0.0
15.8114 -15 0.0
21.9642 -15 0.0
28.1171 -15 0.0
39.0585 -15 0.0
50 -15 0.0
0 -16.5 0.0
1 -16.5 0.0
2 -16.5 0.0
3 -16.5 0.0
4 -16.5 0.0
5 -16.5 0.0
8.8914 -16.5 0.0
15.8114 -16.5 0.0
28.1171 -16.5 0.0
50 -16.5 0.0
0 -18 0.0
0.5 -18 0.0
1 -18 0.0
1.5 -18 0.0
2 -18 0.0
2.5 -18 0.0
3 -18 0.0
3.5 -18 0.0
4 -18 0.0
4.5 -18 0.0
5 -18 0.0
6.9457 -18 0.0
8.8914 -18 0.0
12.3514 -18 0.0
15.8114 -18 0.0
21.9642 -18 0.0
28.1171 -18 0.0
39.0585 -18 0.0
50 -18 0.0
0 -19.5 0.0
1 -19.5 0.0
2 -19.5 0.0
3 -19.5 0.0
4 -19.5 0.0
5 -19.5 0.0
8.8914 -19.5 0.0
15.8114 -19.5 0.0
28.1171 -19.5 0.0
50 -19.5 0.0
0 -21 0.0
0.5 -21 0.0
1 -21 0.0
1.5 -21 0.0
2 -21 0.0
2.5 -21 0.0
3 -21 0.0
3.5 -21 0.0
4 -21 0.0
4.5 -21 0.0
5 -21 0.0
6.9457 -21 0.0
8.8914 -21 0.0
12.3514 -21 0.0
15.8114 -21 0.0
21.9642 -21 0.0
28.1171 -21 0.0
39.0585 -21 0.0
50 -21 0.0
0 -22.5 0.0
1 -22.5 0.0
2 -22.5 0.0
3 -22.5 0.0
4 -22.5 0.0
5 -22.5 0.0
8.8914 -22.5 0.0
15.8114 -22.5 0.0
28.1171 -22.5 0.0
50 -22.5 0.0
0 -24 0.0
0.5 -24 0.0
1 -24 0.0
1.5 -24 0.0
2 -24 0.0
2.5 -24 0.0
3 -24 0.0
3.5 -24 0.0
4 -24 0.0
4.5 -24 0.0
5 -24 0.0
6.9457 -24 0.0
8.8914 -24 0.0
12.3514 -24 0.0
15.8114 -24 0.0
21.9642 -24 0.0
28.1171 -24 0.0
39.0585 -24 0.0
50 -24 0.0
0 -25.5 0.0
1 -25.5 0.0
2 -25.5 0.0
3 -25.5 0.0
4 -25.5 0.0
5 -25.5 0.0
8.8914 -25.5 0.0
15.8114 -25.5 0.0
28.1171 -25.5 0.0
50 -25.5 0.0
0 -27 0.0
0.5 -27 0.0
1 -27 0.0
1.5 -27 0.0
2 -27 0.0
2.5 -27 0.0
3 -27 0.0
3.5 -27 0.0
4 -27 0.0
4.5 -27 0.0
5 -27 0.0
6.9457 -27 0.0
8.8914 -27 0.0
12.3514 -27 0.0
15.8114 -27 0.0
21.9642 -27 0.0
28.1171 -27 0.0
39.0585 -27 0.0
50 -27 0.0
0 -28.5 0.0
1 -28.5 0.0
2 -28.5 0.0
3 -28.5 0.0
4 -28.5 0.0
5 -28.5 0.0
8.8914 -28.5 0.0
15.8114 -28.5 0.0
28.1171 -28.5 0.0
50 -28.5 0.0
0 -30 0.0
0.5 -30 0.0
1 -30 0.0
1.5 -30 0.0
2 -30 0.0
2.5 -30 0.0
3 -30 0.0
3.5 -30 0.0
4 -30 0.0
4.5 -30 0.0
5 -30 0.0
6.9457 -30 0.0
8.8914 -30 0.0
12.3514 -30 0.0
15.8114 -30 0.0
21.9642 -30 0.0
28.1171 -30 0.0
39.0585 -30 0.0
50 -30 0.0
0 -31.5 0.0
1 -31.5 0.0
2 -31.5 0.0
3 -31.5 0.0
4 -31.5 0.0
5 -31.5 0.0
8.8914 -31.5 0.0
15.8114 -31.5 0.0
28.1171 -31.5 0.0
50 -31.5 0.0
0 -33 0.0
0.5 -33 0.0
1 -33 0.0
1.5 -33 0.0
2 -33 0.0
2.5 -33 0.0
3 -33 0.0
3.5 -33 0.0
4 -33 0.0
4.5 -33 0.0
5 -33 0.0
6.9457 -33 0.0
8.8914 -33 0.0
12.3514 -33 0.0
15.8114 -33 0.0
21.9642 -33 0.0
28.1171 -33 0.0
39.0585 -33 0.0
50 -33 0.0
0 -34.5 0.0
1 -34.5 0.0
2 -34.5 0.0
3 -34.5 0.0
4 -34.5 0.0
5 -34.5 0.0
8.8914 -34.5 0.0
15.8114 -34.5 0.0
28.1171 -34.5 0.0
50 -34.5 0.0
0 -36 0.0
0.5 -36 0.0
1 -36 0.0
1.5 -36 0.0
2 -36 0.0
2.5 -36 0.0
3 -36 0.0
3.5 -36 0.0
4 -36 0.0
4.5 -36 0.0
5 -36 0.0
6.9457 -36 0.0
8.8914 -36 0.0
12.3514 -36 0.0
15.8114 -36 0.0
21.9642 -36 0.0
28.1171 -36 0.0
39.0585 -36 0.0
50 -36 0.0
0 -37.5 0.0
1 -37.5 0.0
2 -37.5 0.0
3 -37.5 0.0
4 -37.5 0.0
5 -37.5 0.0
8.8914 -37.5 0.0
15.8114 -37.5 0.0
28.1171 -37.5 0.0
50 -37.5 0.0
0 -39 0.0
0.5 -39 0.0
1 -39 0.0
1.5 -39 0.0
2 -39 0.0
2.5 -39 0.0
3 -39 0.0
3.5 -39 0.0
4 -39 0.0
4.5 -39 0.0
5 -39 0.0
6.9457 -39 0.0
8.8914 -39 0.0
12.3514 -39 0.0
15.8114 -39 0.0
21.9642 -39 0.0
28.1171 -39 0.0
39.0585 -39 0.0
50 -39 0.0
0 -40.5 0.0
1 -40.5 0.0
2 -40.5 0.0
3 -40.5 0.0
4 -40.5 0.0
5 -40.5 0.0
8.8914 -40.5 0.0
15.8114 -40.5 0.0
28.1171 -40.5 0.0
50 -40.5 0.0
0 -42 0.0
0.5 -42 0.0
1 -42 0.0
1.5 -42 0.0
2 -42 0.0
2.5 -42 0.0
3 -42 0.0
3.5 -42 0.0
4 -42 0.0
4.5 -42 0.0
5 -42 0.0
6.9457 -42 0.0
8.8914 -42 0.0
12.3514 -42 0.0
15.8114 -42 0.0
21.9642 -42 0.0
28.1171 -42 0.0
39.0585 -42 0.0
50 -42 0.0
0 -43.5 0.0
1 -43.5 0.0
2 -43.5 0.0
3 -43.5 0.0
4 -43.5 0.0
5 -43.5 0.0
8.8914 -43.5 0.0
15.8114 -43.5 0.0
28.1171 -43.5 0.0
50 -43.5 0.0
0 -45 0.0
0.5 -45 0.0
1 -45 0.0
1.5 -45 0.0
2 -45 0.0
2.5 -45 0.0
3 -45 0.0
3.5 -45 0.0
4 -45 0.0
4.5 -45 0.0
5 -45 0.0
6.9457 -45 0.0
8.8914 -45 0.0
12.3514 -45 0.0
15.8114 -45 0.0
21.9642 -45 0.0
28.1171 -45 0.0
39.0585 -45 0.0
50 -45 0.0
0 -50.5 0.0
1 -50.5 0.0
2 -50.5 0.0
3 -50.5 0.0
4 -50.5 0.0
5 -50.5 0.0
8.8914 -50.5 0.0
15.8114 -50.5 0.0
28.1171 -50.5 0.0
50 -50.5 0.0
0 -56 0.0
0.5 -56 0.0
1 -56 0.0
1.5 -56 0.0
2 -56 0.0
2.5 -56 0.0
3 -56 0.0
3.5 -56 0.0
4 -56 0.0
4.5 -56 0.0
5 -56 0.0
6.9457 -56 0.0
8.8914 -56 0.0
12.3514 -56 0.0
15.8114 -56 0.0
21.9642 -56 0.0
28.1171 -56 0.0
39.0585 -56 0.0
50 -56 0.0
0 -61.5 0.0
1 -61.5 0.0
2 -61.5 0.0
3 -61.5 0.0
4 -61.5 0.0
5 -61.5 0.0
8.8914 -61.5 0.0
15.8114 -61.5 0.0
28.1171 -61.5 0.0
[...]
POINT_DATA 889
SCALARS Displacement_R double 1
LOOKUP_TABLE default
0
-4.17637e-06
-8.31022e-06
-1.2362e-05
-1.62914e-05
-2.00712e-05
-2.36638e-05
-2.70665e-05
-3.01948e-05
-3.29431e-05
-3.53101e-05
-4.0816e-05
-4.30236e-05
-4.19029e-05
-3.80206e-05
-2.89974e-05
-2.02012e-05
-9.58428e-06
0
0
-5.84961e-06
-1.1446e-05
-1.65336e-05
-2.08173e-05
-2.42596e-05
-3.12864e-05
-2.80221e-05
-1.4949e-05
0
0
-1.81462e-06
-3.60401e-06
-5.34891e-06
-7.02146e-06
-8.59916e-06
-1.00509e-05
-1.13711e-05
-1.25356e-05
-1.35374e-05
-1.46214e-05
-1.83092e-05
-1.9976e-05
-1.9864e-05
-1.81543e-05
-1.38509e-05
-9.69983e-06
-4.58089e-06
0
0
-1.51138e-06
-2.91019e-06
-4.09105e-06
-5.0095e-06
-5.9401e-06
-9.08143e-06
-8.38744e-06
-4.42351e-06
0
0
2.46278e-07
4.96282e-07
7.50012e-07
1.0137e-06
1.29007e-06
1.57255e-06
1.84745e-06
2.08401e-06
2.24519e-06
2.31979e-06
2.02368e-06
1.64907e-06
1.46116e-06
1.33953e-06
1.11926e-06
8.51795e-07
3.82005e-07
0
0
2.48798e-06
4.90413e-06
7.15714e-06
9.10302e-06
1.05418e-05
1.23758e-05
1.10661e-05
6.12844e-06
0
0
2.28479e-06
4.5462e-06
6.76477e-06
8.91592e-06
1.09797e-05
1.29284e-05
1.47295e-05
1.63575e-05
1.77946e-05
1.90332e-05
2.21511e-05
2.3259e-05
2.27937e-05
2.08371e-05
1.60958e-05
1.14075e-05
5.34539e-06
0
0
6.75338e-06
1.32245e-05
1.91256e-05
2.41843e-05
2.81543e-05
3.45504e-05
3.07186e-05
1.66624e-05
0
0
4.62391e-06
9.19678e-06
1.3676e-05
1.80083e-05
2.2141e-05
2.60271e-05
2.96101e-05
3.28737e-05
3.57774e-05
3.8293e-05
4.41604e-05
4.63247e-05
4.48388e-05
4.07271e-05
3.12597e-05
2.19229e-05
1.035e-05
0
0
1.06203e-05
2.08396e-05
3.02566e-05
3.85001e-05
4.52387e-05
5.87287e-05
5.833e-05
3.86565e-05
0
0
5.9253e-06
1.17958e-05
1.75682e-05
2.31833e-05
2.86027e-05
3.37737e-05
3.86403e-05
4.31569e-05
4.73396e-05
5.11473e-05
6.26536e-05
6.95041e-05
7.44866e-05
7.3935e-05
6.60748e-05
5.3658e-05
2.89597e-05
0
0
1.27476e-05
2.50931e-05
3.66489e-05
4.70767e-05
5.61557e-05
7.87688e-05
8.77116e-05
6.71057e-05
0
0
6.77896e-06
1.35048e-05
2.01355e-05
2.6619e-05
3.29136e-05
3.89721e-05
4.47563e-05
5.02456e-05
5.54074e-05
6.02498e-05
7.5781e-05
8.65185e-05
9.69206e-05
9.95837e-05
9.33111e-05
7.8775e-05
4.38279e-05
0
0
1.40804e-05
2.7787e-05
4.07659e-05
5.27286e-05
6.3481e-05
9.28677e-05
0.000109629
8.88539e-05
0
0
7.26974e-06
1.44915e-05
2.16261e-05
2.86262e-05
3.54552e-05
4.20738e-05
4.84525e-05
5.45634e-05
6.0385e-05
6.59045e-05
8.42307e-05
9.78208e-05
0.000112486
0.000117823
0.000113177
9.71427e-05
5.46414e-05
0
0
1.47474e-05
2.91593e-05
4.29238e-05
5.57848e-05
6.75555e-05
0.000101498
0.000124257
0.00010386
0
0
7.45042e-06
1.48581e-05
2.21888e-05
2.9401e-05
3.64613e-05
4.33366e-05
4.99983e-05
5.64219e-05
6.25859e-05
6.84762e-05
8.84468e-05
0.000103881
0.000121493
0.000128888
0.000125718
0.000108791
6.13307e-05
0
0
1.48293e-05
2.93639e-05
4.33293e-05
5.64953e-05
6.86854e-05
0.000105068
0.000131811
0.000112151
0
0
7.35158e-06
1.4666e-05
2.19132e-05
2.9057e-05
3.60679e-05
4.29162e-05
4.95764e-05
5.60256e-05
6.22443e-05
6.82162e-05
8.87556e-05
0.00010505
0.000124268
0.000132972
0.000130994
0.000113737
6.3951e-05
0
0
1.4372e-05
2.8488e-05
4.21079e-05
5.50263e-05
6.70798e-05
0.000103896
0.000132498
0.000113755
0
0
6.99101e-06
1.39499e-05
2.08509e-05
2.76623e-05
3.43587e-05
4.09138e-05
4.73047e-05
5.35105e-05
5.95139e-05
6.52991e-05
8.53923e-05
0.000101604
0.0001211
0.000130312
0.000129059
0.00011202
6.25694e-05
0
0
1.34017e-05
2.65836e-05
3.93388e-05
5.14866e-05
6.288e-05
9.82235e-05
0.000126547
0.000108757
0
0
6.37803e-06
1.27288e-05
1.90303e-05
2.52555e-05
3.13829e-05
3.73894e-05
4.32555e-05
4.89625e-05
5.4495e-05
5.98383e-05
7.85186e-05
9.37528e-05
0.000112245
0.000121128
0.000120063
0.000103777
5.73781e-05
0
0
1.19314e-05
2.36785e-05
3.50663e-05
4.5941e-05
5.61744e-05
8.82281e-05
0.000114182
9.72936e-05
0
0
5.51682e-06
1.10112e-05
1.64649e-05
2.18557e-05
2.71657e-05
3.23753e-05
3.74683e-05
4.24291e-05
4.72441e-05
5.19009e-05
6.82456e-05
8.1645e-05
9.78847e-05
0.0001056
0.000104118
8.91271e-05
4.85958e-05
0
0
9.96699e-06
1.97855e-05
2.93135e-05
3.84249e-05
4.70134e-05
7.40244e-05
9.55045e-05
7.95441e-05
0
0
4.40943e-06
8.80128e-06
1.31615e-05
1.74725e-05
2.17201e-05
2.5889e-05
2.99655e-05
3.39367e-05
3.77935e-05
4.15243e-05
5.46307e-05
6.53605e-05
7.81115e-05
8.38063e-05
8.1376e-05
6.83445e-05
3.64015e-05
0
0
7.51315e-06
1.49151e-05
2.20986e-05
2.89665e-05
3.54334e-05
5.56681e-05
7.06175e-05
5.58141e-05
0
0
3.05965e-06
6.107e-06
9.13169e-06
1.21213e-05
1.50654e-05
1.79532e-05
2.07747e-05
2.35203e-05
2.61831e-05
2.87535e-05
3.77098e-05
4.49425e-05
5.30005e-05
5.58371e-05
5.20489e-05
4.17559e-05
2.09319e-05
0
0
4.58393e-06
9.09346e-06
1.34552e-05
1.7601e-05
2.1468e-05
3.31718e-05
3.96228e-05
2.65158e-05
0
0
1.48155e-06
2.95506e-06
4.41358e-06
5.84964e-06
7.25597e-06
8.62626e-06
9.95401e-06
1.12338e-05
1.24584e-05
1.36237e-05
1.75163e-05
2.03401e-05
2.25724e-05
2.18091e-05
1.62567e-05
9.85925e-06
2.19782e-06
0
0
2.80149e-06
5.55404e-06
8.21023e-06
1.07265e-05
1.30654e-05
2.00097e-05
2.29287e-05
1.23015e-05
0
0
1.3263e-06
2.64731e-06
3.9584e-06
5.25451e-06
6.53063e-06
7.78262e-06
9.00553e-06
1.01959e-05
1.13498e-05
1.24644e-05
1.63475e-05
1.94512e-05
2.2669e-05
2.33192e-05
2.00001e-05
1.40988e-05
5.23066e-06
0
0
2.49687e-06
4.96017e-06
7.35725e-06
9.65754e-06
1.18321e-05
1.87048e-05
2.33562e-05
1.54439e-05
0
0
1.17531e-06
2.34683e-06
3.51133e-06
4.66516e-06
5.80477e-06
6.92702e-06
8.02825e-06
9.10582e-06
1.01566e-05
1.11779e-05
1.48302e-05
1.78768e-05
2.15069e-05
2.30019e-05
2.12292e-05
1.63084e-05
7.09575e-06
0
0
2.2012e-06
4.378e-06
6.50646e-06
8.56395e-06
1.05298e-05
1.69764e-05
2.24187e-05
1.68403e-05
0
0
1.03096e-06
2.05914e-06
3.08218e-06
4.09729e-06
5.10199e-06
6.0938e-06
7.0702e-06
8.02901e-06
8.96725e-06
9.88354e-06
1.32019e-05
1.60545e-05
1.97368e-05
2.16418e-05
2.09813e-05
1.70327e-05
8.07701e-06
0
0
1.92284e-06
3.8274e-06
5.69566e-06
7.51024e-06
9.25522e-06
1.51227e-05
2.07515e-05
1.70181e-05
0
0
8.96974e-07
1.79182e-06
2.68278e-06
3.56771e-06
4.44473e-06
5.31191e-06
6.16744e-06
7.00948e-06
7.83609e-06
8.64579e-06
1.16052e-05
1.42021e-05
1.77242e-05
1.97807e-05
1.98688e-05
1.6775e-05
8.4102e-06
0
0
1.66739e-06
3.32081e-06
4.94642e-06
6.53083e-06
8.06142e-06
1.33008e-05
1.87633e-05
1.64121e-05
0
0
7.75374e-07
1.54911e-06
2.31985e-06
3.08594e-06
3.84592e-06
4.5983e-06
5.34164e-06
6.07453e-06
6.79555e-06
7.50343e-06
1.01085e-05
1.2428e-05
1.56821e-05
1.77302e-05
1.82911e-05
1.59044e-05
8.2922e-06
0
0
1.4376e-06
2.86434e-06
4.26945e-06
5.64251e-06
6.97349e-06
1.15896e-05
1.66908e-05
1.53357e-05
0
0
6.66831e-07
1.33238e-06
1.99559e-06
2.65516e-06
3.30997e-06
3.95882e-06
4.60058e-06
5.23415e-06
5.85845e-06
6.47241e-06
8.74347e-06
1.07878e-05
1.37257e-05
1.56717e-05
1.65055e-05
1.46832e-05
7.87916e-06
0
0
1.23371e-06
2.45889e-06
3.66706e-06
4.84998e-06
5.99966e-06
1.00264e-05
1.46702e-05
1.40082e-05
0
0
5.71061e-07
1.14111e-06
1.70931e-06
2.27464e-06
2.83619e-06
3.39304e-06
3.94427e-06
4.48899e-06
5.02642e-06
5.55561e-06
7.52098e-06
9.30468e-06
1.19147e-05
1.37076e-05
1.46747e-05
1.32925e-05
7.28972e-06
0
0
1.05461e-06
2.10246e-06
3.13679e-06
4.15105e-06
5.1388e-06
8.62472e-06
1.27763e-05
1.25788e-05
0
0
4.87272e-07
9.73736e-07
1.45872e-06
1.94143e-06
2.42113e-06
2.89708e-06
3.36856e-06
3.83487e-06
4.2953e-06
4.7492e-06
6.43968e-06
7.9841e-06
1.02753e-05
1.18923e-05
1.28979e-05
1.18539e-05
6.61065e-06
0
0
8.9841e-07
1.79138e-06
2.67351e-06
3.53953e-06
4.38439e-06
7.3837e-06
1.10465e-05
1.11455e-05
0
0
4.14451e-07
8.28257e-07
1.24089e-06
1.65166e-06
2.06002e-06
2.46532e-06
2.867e-06
3.26443e-06
3.6572e-06
4.04459e-06
5.49238e-06
6.82027e-06
8.81461e-06
1.0251e-05
1.12326e-05
1.04451e-05
5.90329e-06
0
0
7.63078e-07
1.52184e-06
2.27192e-06
3.00904e-06
3.72873e-06
6.29674e-06
9.4957e-06
9.76632e-06
0
0
3.51434e-07
7.02356e-07
1.05228e-06
1.40076e-06
1.74727e-06
2.0914e-06
2.43261e-06
2.77054e-06
3.10468e-06
3.43465e-06
4.66765e-06
5.80701e-06
7.5234e-06
8.79118e-06
9.71282e-06
9.10684e-06
5.21073e-06
0
0
5.18187e-07
1.03366e-06
1.5437e-06
2.04563e-06
2.53684e-06
4.30186e-06
6.5674e-06
6.98764e-06
0
0
1.88691e-07
3.77146e-07
5.65132e-07
7.5244e-07
9.38788e-07
1.12402e-06
1.30782e-06
1.49007e-06
1.6704e-06
1.84877e-06
2.51843e-06
3.14332e-06
4.10328e-06
4.84259e-06
5.45004e-06
5.24617e-06
3.05688e-06
0
0
2.75712e-07
5.50098e-07
8.21846e-07
1.08967e-06
1.3523e-06
2.30233e-06
3.55491e-06
3.89692e-06
0
0
9.98969e-08
1.99673e-07
2.99221e-07
3.98426e-07
4.9716e-07
5.95331e-07
6.92791e-07
7.89471e-07
8.85193e-07
9.7992e-07
1.3363e-06
1.66994e-06
2.18743e-06
2.59059e-06
2.95266e-06
2.87421e-06
1.68738e-06
0
0
1.45765e-07
2.9086e-07
4.34622e-07
5.76392e-07
7.15538e-07
1.22067e-06
1.89751e-06
2.1114e-06
0
0
5.2989e-08
1.05918e-07
1.5873e-07
2.1137e-07
2.6377e-07
3.15885e-07
3.67641e-07
4.19e-07
4.69872e-07
5.20239e-07
7.10078e-07
8.88359e-07
1.16481e-06
1.38239e-06
1.58354e-06
1.55047e-06
9.14434e-07
0
0
7.65947e-08
1.52849e-07
2.28423e-07
3.02981e-07
3.76201e-07
6.42366e-07
1.00227e-06
1.12404e-06
0
0
2.62323e-08
5.24328e-08
7.85787e-08
1.04635e-07
1.30579e-07
1.56376e-07
1.82003e-07
2.07426e-07
2.32613e-07
2.57541e-07
3.51836e-07
4.40144e-07
5.78601e-07
6.87114e-07
7.92066e-07
7.74388e-07
4.60593e-07
0
0
2.91449e-08
5.81613e-08
8.69247e-08
1.15313e-07
1.4322e-07
2.44539e-07
3.82581e-07
4.3419e-07
0
0
0
0
0
0
0
0
0
0
0
0
0
0
0
0
0
0
0
0
SCALARS Displacement_Z double 1
LOOKUP_TABLE default
0.000597435
0.00059679
0.000594841
0.000591622
0.000587143
0.000581436
0.00057453
0.000566473
0.000557177
0.000546639
0.000534188
0.000487071
0.000440338
0.000358754
0.000284319
0.000175417
9.60289e-05
1.16805e-05
-1.51097e-05
0.000600242
0.000597596
0.000589735
0.000576884
0.000559187
0.000536397
0.000441491
0.00028453
9.59249e-05
-1.5307e-05
0.000601842
0.000601165
0.000599151
0.000595811
0.000591172
0.000585257
0.000578102
0.000569749
0.00056023
0.000549484
0.000537843
0.000490336
0.000442319
0.000359828
0.000284697
0.000175351
9.5858e-05
1.14156e-05
-1.54461e-05
0.000602391
0.000599672
0.000591605
0.00057842
0.00056044
0.000538516
0.000442793
0.000284764
9.58128e-05
-1.55249e-05
0.000601978
0.000601292
0.000599245
0.000595852
0.000591139
0.00058514
0.000577908
0.000569508
0.000560029
0.00054959
0.000538435
0.000491359
0.000442908
0.000360138
0.000284781
0.000175319
9.5804e-05
1.13369e-05
-1.55458e-05
0.000600661
0.00059793
0.000589835
0.000576657
0.000558941
0.000537687
0.000442665
0.0002847
9.58164e-05
-1.55093e-05
0.0005984
0.000597718
0.00059569
0.000592327
0.000587663
0.000581739
0.000574624
0.000566396
0.000557165
0.000547059
0.000536206
0.000490078
0.000442055
0.000359645
0.000284569
0.00017531
9.58651e-05
1.14465e-05
-1.54148e-05
0.000595122
0.000592454
0.000584554
0.000571732
0.000554612
0.000534069
0.000441085
0.000284335
9.59356e-05
-1.52604e-05
0.000590653
0.000590005
0.00058805
0.00058482
0.000580332
0.000574651
0.000567827
0.000559951
0.000551125
0.000541475
0.000531163
0.000486496
0.000439773
0.000358389
0.000284059
0.000175337
9.60432e-05
1.17428e-05
-1.50476e-05
0.000574392
0.000571938
0.000564672
0.000552931
0.000537236
0.00051862
0.000431287
0.000279195
9.4228e-05
-1.47746e-05
0.00055691
0.000556332
0.000554607
0.000551754
0.000547803
0.0005428
0.000536806
0.000529893
0.000522167
0.000513697
0.000504722
0.000464454
0.000421581
0.000344806
0.000273688
0.000169257
9.2412e-05
1.17369e-05
-1.4014e-05
0.00053844
0.000536291
0.000529941
0.000519681
0.000506034
0.0004897
0.000410839
0.000267591
9.05557e-05
-1.29471e-05
0.000519186
0.000518687
0.000517187
0.000514711
0.000511281
0.00050694
0.000501735
0.000495748
0.000489025
0.000481649
0.00047374
0.000437911
0.000399146
0.000327822
0.000260955
0.000162008
8.86952e-05
1.26738e-05
-1.14989e-05
0.000499332
0.00049748
0.000491997
0.000483139
0.000471316
0.000457041
0.000386677
0.000253853
8.68036e-05
-9.8255e-06
0.000479048
0.000478621
0.000477333
0.000475206
0.000472256
0.000468524
0.000464047
0.000458877
0.000453063
0.00044666
0.000439746
0.000408184
0.000373532
0.000308206
0.000246328
0.000153781
8.49056e-05
1.43373e-05
-7.87682e-06
0.000458484
0.000456901
0.000452208
0.00044461
0.000434419
0.000422027
0.000359873
0.000238461
8.29926e-05
-5.78077e-06
0.000437789
0.000437427
0.000436328
0.000434515
0.000431997
0.000428808
0.000424973
0.000420536
0.000415533
0.000410008
0.000404014
0.00037647
0.000345805
0.000286751
0.000230296
0.000144811
8.10775e-05
1.64896e-05
-3.51786e-06
0.000417097
0.000415753
0.00041176
0.000405278
0.000396546
0.000385864
0.00033148
0.000221922
7.91492e-05
-1.19114e-06
0.000396543
0.000396238
0.000395307
0.00039377
0.000391633
0.000388923
0.000385658
0.000381873
0.000377594
0.000372857
0.0003677
0.000343878
0.000317
0.000264253
0.00021339
0.000135342
7.72045e-05
1.89016e-05
1.20351e-06
0.000376253
0.000375118
0.000371742
0.000366244
0.000358808
0.000349666
0.000302506
0.000204786
7.52506e-05
3.59335e-06
0.000356355
0.000356098
0.000355314
0.000354019
0.000352215
0.000349926
0.000347163
0.000343954
0.000340318
0.000336284
0.000331879
0.000311452
0.000288101
0.000241496
0.000196165
0.000125657
7.32887e-05
2.13316e-05
5.94539e-06
0.000336969
0.000336016
0.000333176
0.000328541
0.000322248
0.000314474
0.000273914
0.000187613
7.13372e-05
8.23503e-06
0.00031822
0.000318006
0.000317348
0.000316263
0.000314749
0.000312826
0.0003105
0.000307794
0.000304722
0.000301307
0.000297568
0.00028018
0.000260045
0.000219242
0.000179188
0.000116057
6.93799e-05
2.35454e-05
1.03867e-05
0.000300227
0.000299431
0.000297054
0.000293163
0.000287862
0.000281285
0.000246616
0.00017097
6.74347e-05
1.24204e-05
0.000283114
0.000282936
0.000282387
0.00028148
0.000280213
0.000278602
0.000276651
0.000274376
0.000271788
0.000268906
0.000265743
0.000251008
0.000233723
0.000198218
0.000163011
0.000106819
6.54814e-05
2.53179e-05
1.42215e-05
0.000267001
0.000266336
0.000264346
0.000261082
0.00025662
0.000251059
0.00022148
0.000155388
6.35455e-05
1.58467e-05
0.000252011
0.000251862
0.000251401
0.00025064
0.000249576
0.000248222
0.000246579
0.000244662
0.000242475
0.000240036
0.000237351
0.000224838
0.000209983
0.00017912
0.000148163
9.82246e-05
6.16001e-05
2.64414e-05
1.71467e-05
0.000238263
0.000237702
0.000236022
0.00023326
0.000229474
0.000224736
0.000199343
0.000141408
5.96707e-05
1.81978e-05
0.000225883
0.000225755
0.000225362
0.000224713
0.000223805
0.000222648
0.000221244
0.000219603
0.00021773
0.000215636
0.000213333
0.000202566
0.000189657
0.000162646
0.000135185
9.054e-05
5.7726e-05
2.6728e-05
1.8838e-05
0.000214988
0.000214501
0.000213045
0.000210649
0.000207364
0.000203245
0.000181032
0.000129572
5.57891e-05
1.91144e-05
0.000205698
0.000205582
0.000205236
0.00020466
0.000203858
0.000202834
0.000201594
0.000200143
0.00019849
0.00019664
0.000194604
0.00018508
0.000173568
0.000149466
0.000124617
8.39921e-05
5.38258e-05
2.6022e-05
1.8904e-05
0.000192316
0.00019192
0.000190738
0.000188791
0.000186115
0.00018276
0.000164336
0.000120474
5.37931e-05
1.88849e-05
0.000179924
0.000179837
0.000179581
0.000179152
0.000178557
0.000177795
0.000176871
0.000175786
0.000174547
0.000173156
0.00017162
0.000164375
0.000155415
0.000136401
0.000116047
8.10075e-05
5.36185e-05
2.67797e-05
1.9054e-05
0.000168429
0.00016813
0.000167239
0.000165768
0.000163737
0.000161176
0.000146892
0.000111569
5.33292e-05
1.93553e-05
0.000157763
0.000157697
0.000157502
0.000157175
0.000156721
0.000156138
0.000155431
0.0001546
0.00015365
0.000152582
0.000151402
0.000145784
0.000138766
0.00012367
0.000106999
7.72226e-05
5.28982e-05
2.75685e-05
1.97691e-05
0.000147862
0.000147632
0.000146945
0.000145811
0.000144241
0.000142255
0.000131058
0.000102519
5.23575e-05
2.02389e-05
0.000138668
0.000138617
0.000138465
0.000138212
0.000137859
0.000137407
0.000136857
0.00013621
0.000135469
0.000134636
0.000133713
0.000129309
0.000123769
0.000111697
9.80615e-05
7.29689e-05
5.16957e-05
2.8279e-05
2.07578e-05
0.000130128
0.000129949
0.000129412
0.000128524
0.000127295
0.000125736
0.00011688
9.37522e-05
5.0949e-05
2.12879e-05
0.000122194
0.000122154
0.000122035
0.000121836
0.000121559
0.000121203
0.00012077
0.000120261
0.000119678
0.00011902
0.000118291
0.000114806
0.000110396
0.000100689
8.95334e-05
6.8504e-05
5.01068e-05
2.88343e-05
2.1819e-05
0.000114819
0.000114678
0.000114254
0.000113552
0.000112579
0.000111344
0.000104284
8.54877e-05
4.92053e-05
2.23313e-05
0.000107962
0.000107931
0.000107836
0.000107678
0.000107458
0.000107176
0.000106832
0.000106428
0.000105964
0.000105441
0.000104861
0.000102081
9.85459e-05
9.07054e-05
8.15691e-05
6.40105e-05
4.8233e-05
2.91916e-05
2.28107e-05
0.000101582
0.00010147
0.000101132
0.000100573
9.9797e-05
9.88108e-05
9.31459e-05
7.78293e-05
4.72241e-05
2.32524e-05
9.5644e-05
9.56186e-05
9.5543e-05
9.5417e-05
9.52411e-05
9.50154e-05
9.47407e-05
9.44172e-05
9.4046e-05
9.36272e-05
9.31622e-05
9.09301e-05
8.80812e-05
8.17235e-05
7.42324e-05
5.96095e-05
4.6165e-05
2.9332e-05
2.36395e-05
9.01121e-05
9.00217e-05
8.97512e-05
8.93027e-05
8.86798e-05
8.78873e-05
8.33182e-05
7.08087e-05
4.50875e-05
2.39781e-05
8.49559e-05
8.49355e-05
8.48747e-05
8.47734e-05
8.4632e-05
8.44505e-05
8.42296e-05
8.39692e-05
8.36704e-05
8.33331e-05
8.29584e-05
8.11571e-05
7.88511e-05
7.36795e-05
6.75309e-05
5.53748e-05
4.39763e-05
2.92522e-05
2.425e-05
8.01454e-05
8.00726e-05
7.98546e-05
7.9493e-05
7.89904e-05
7.83505e-05
7.46498e-05
6.44143e-05
4.28599e-05
2.44686e-05
7.56542e-05
7.56378e-05
7.55887e-05
7.55068e-05
7.53926e-05
7.52459e-05
7.50674e-05
7.48569e-05
7.46152e-05
7.43425e-05
7.40394e-05
7.25797e-05
7.07063e-05
6.64892e-05
6.14387e-05
5.13467e-05
4.1722e-05
2.89596e-05
2.46153e-05
7.14566e-05
7.13977e-05
7.12212e-05
7.09284e-05
7.05212e-05
7.00023e-05
6.69952e-05
5.86096e-05
4.05879e-05
2.47082e-05
6.75299e-05
6.75166e-05
6.74768e-05
6.74105e-05
6.73179e-05
6.7199e-05
6.70542e-05
6.68835e-05
6.66872e-05
6.64657e-05
6.62191e-05
6.50332e-05
6.35069e-05
6.00607e-05
5.59122e-05
4.75422e-05
3.94411e-05
2.84674e-05
2.47288e-05
6.38523e-05
6.38043e-05
6.3661e-05
6.34232e-05
6.30927e-05
6.2671e-05
6.02218e-05
5.33435e-05
3.83035e-05
2.46985e-05
6.04043e-05
6.0393e-05
6.03608e-05
6.03065e-05
6.02315e-05
6.01345e-05
6.00169e-05
5.98778e-05
5.97186e-05
5.95387e-05
5.93392e-05
5.83696e-05
5.71286e-05
5.4303e-05
5.08946e-05
4.39646e-05
3.71592e-05
2.77917e-05
2.45988e-05
4.94217e-05
4.93923e-05
4.93035e-05
4.91559e-05
4.89504e-05
4.86878e-05
4.71597e-05
4.28237e-05
3.3099e-05
2.38457e-05
4.05404e-05
4.05349e-05
4.05197e-05
4.04939e-05
4.04585e-05
4.04124e-05
4.03569e-05
4.02909e-05
4.02155e-05
4.01302e-05
4.00358e-05
3.95732e-05
3.89819e-05
3.7622e-05
3.59651e-05
3.25366e-05
2.90472e-05
2.40369e-05
2.23316e-05
3.31723e-05
3.31583e-05
3.31162e-05
3.30463e-05
3.2949e-05
3.28243e-05
3.20972e-05
3.00078e-05
2.51986e-05
2.04204e-05
2.69063e-05
2.69038e-05
2.68966e-05
2.68846e-05
2.68679e-05
2.68464e-05
2.68203e-05
2.67894e-05
2.6754e-05
2.67141e-05
2.66698e-05
2.64524e-05
2.61737e-05
2.55332e-05
2.47512e-05
2.3099e-05
2.13932e-05
1.88855e-05
1.80393e-05
2.1422e-05
2.14156e-05
2.13965e-05
2.13646e-05
2.13201e-05
2.12632e-05
2.09314e-05
1.99688e-05
1.77229e-05
1.54381e-05
1.64993e-05
1.64981e-05
1.64951e-05
1.64898e-05
1.64826e-05
1.64733e-05
1.6462e-05
1.64486e-05
1.64333e-05
1.64161e-05
1.63971e-05
1.63022e-05
1.61807e-05
1.59037e-05
1.55636e-05
1.48372e-05
1.40835e-05
1.2953e-05
1.25797e-05
1.19711e-05
1.19686e-05
1.19611e-05
1.19486e-05
1.19312e-05
1.19088e-05
1.17794e-05
1.14026e-05
1.05211e-05
9.60786e-06
7.73979e-06
7.73941e-06
7.73844e-06
7.73677e-06
7.73451e-06
7.73154e-06
7.728e-06
7.72377e-06
7.71897e-06
7.7136e-06
7.70768e-06
7.67713e-06
7.63861e-06
7.55154e-06
7.44501e-06
7.21438e-06
6.97745e-06
6.60473e-06
6.49562e-06
3.74441e-06
3.74396e-06
3.74254e-06
3.74017e-06
3.73683e-06
3.73246e-06
3.70827e-06
3.63458e-06
3.47984e-06
3.30904e-06
-0
-0
-0
-0
-0
-0
-0
-0
-0
-0
-0
-0
-0
-0
-0
-0
-0
-0
-0
SCALARS Stress_R double 1
LOOKUP_TABLE default
4.45
4.4086
4.37619
4.28286
4.19554
4.04615
3.91886
3.75474
3.51968
3.17452
2.41805
1.35014
0.655223
0.157657
-0.22333
-0.339497
-0.334513
-0.287506
-0.279152
3.24064
3.1855
3.03977
2.78703
2.38613