# vtk DataFile Version 2.0
./vtk
ASCII

DATASET UNSTRUCTURED_GRID
POINTS 1881 double
0 0 0.0
0.5595 0 0.0
1.119 0 0.0
1.3804 0 0.0
1.6417 0 0.0
1.7638 0 0.0
1.8859 0 0.0
1.943 0 0.0
2 0 0.0
2.1158 0 0.0
2.2317 0 0.0
2.6158 0 0.0
3 0 0.0
3.3842 0 0.0
3.7683 0 0.0
3.8842 0 0.0
4 0 0.0
4.0184 0 0.0
4.0369 0 0.0
4.0621 0 0.0
4.0873 0 0.0
4.1219 0 0.0
4.1564 0 0.0
4.2037 0 0.0
4.251 0 0.0
4.3157 0 0.0
4.3804 0 0.0
4.469 0 0.0
4.5575 0 0.0
4.6788 0 0.0
4.8 0 0.0
4.9659 0 0.0
5.1319 0 0.0
5.359 0 0.0
5.5861 0 0.0
5.897 0 0.0
6.2078 0 0.0
6.6333 0 0.0
7.0588 0 0.0
7.6412 0 0.0
8.2236 0 0.0
9.0207 0 0.0
9.8179 0 0.0
10.9089 0 0.0
12 0 0.0
0 0.3333 0.0
1.119 0.3333 0.0
1.6417 0.3333 0.0
1.8859 0.3333 0.0
2 0.3333 0.0
2.2317 0.3333 0.0
3 0.3333 0.0
3.7683 0.3333 0.0
4 0.3333 0.0
4.0369 0.3333 0.0
4.0873 0.3333 0.0
4.1564 0.3333 0.0
4.251 0.3333 0.0
4.3804 0.3333 0.0
4.5575 0.3333 0.0
4.8 0.3333 0.0
5.1319 0.3333 0.0
5.5861 0.3333 0.0
6.2078 0.3333 0.0
7.0588 0.3333 0.0
8.2236 0.3333 0.0
9.8179 0.3333 0.0
12 0.3333 0.0
0 0.6667 0.0
0.5595 0.6667 0.0
1.119 0.6667 0.0
1.3804 0.6667 0.0
1.6417 0.6667 0.0
1.7638 0.6667 0.0
1.8859 0.6667 0.0
1.943 0.6667 0.0
2 0.6667 0.0
2.1158 0.6667 0.0
2.2317 0.6667 0.0
2.6158 0.6667 0.0
3 0.6667 0.0
3.3842 0.6667 0.0
3.7683 0.6667 0.0
3.8842 0.6667 0.0
4 0.6667 0.0
4.0184 0.6667 0.0
4.0369 0.6667 0.0
4.0621 0.6667 0.0
4.0873 0.6667 0.0
4.1219 0.6667 0.0
4.1564 0.6667 0.0
4.2037 0.6667 0.0
4.251 0.6667 0.0
4.3157 0.6667 0.0
4.3804 0.6667 0.0
4.469 0.6667 0.0
4.5575 0.6667 0.0
4.6788 0.6667 0.0
4.8 0.6667 0.0
4.9659 0.6667 0.0
5.1319 0.6667 0.0
5.359 0.6667 0.0
5.5861 0.6667 0.0
5.897 0.6667 0.0
6.2078 0.6667 0.0
6.6333 0.6667 0.0
7.0588 0.6667 0.0
7.6412 0.6667 0.0
8.2236 0.6667 0.0
9.0207 0.6667 0.0
9.8179 0.6667 0.0
10.9089 0.6667 0.0
12 0.6667 0.0
0 1 0.0
1.119 1 0.0
1.6417 1 0.0
1.8859 1 0.0
2 1 0.0
2.2317 1 0.0
3 1 0.0
3.7683 1 0.0
4 1 0.0
4.0369 1 0.0
4.0873 1 0.0
4.1564 1 0.0
4.251 1 0.0
4.3804 1 0.0
4.5575 1 0.0
4.8 1 0.0
5.1319 1 0.0
5.5861 1 0.0
6.2078 1 0.0
7.0588 1 0.0
8.2236 1 0.0
9.8179 1 0.0
12 1 0.0
0 1.3333 0.0
0.5595 1.3333 0.0
1.119 1.3333 0.0
1.3804 1.3333 0.0
1.6417 1.3333 0.0
1.7638 1.3333 0.0
1.8859 1.3333 0.0
1.943 1.3333 0.0
2 1.3333 0.0
2.1158 1.3333 0.0
2.2317 1.3333 0.0
2.6158 1.3333 0.0
3 1.3333 0.0
3.3842 1.3333 0.0
3.7683 1.3333 0.0
3.8842 1.3333 0.0
4 1.3333 0.0
4.0184 1.3333 0.0
4.0369 1.3333 0.0
4.0621 1.3333 0.0
4.0873 1.3333 0.0
4.1219 1.3333 0.0
4.1564 1.3333 0.0
4.2037 1.3333 0.0
4.251 1.3333 0.0
4.3157 1.3333 0.0
4.3804 1.3333 0.0
4.469 1.3333 0.0
4.5575 1.3333 0.0
4.6788 1.3333 0.0
4.8 1.3333 0.0
4.9659 1.3333 0.0
5.1319 1.3333 0.0
5.359 1.3333 0.0
5.5861 1.3333 0.0
5.897 1.3333 0.0
6.2078 1.3333 0.0
6.6333 1.3333 0.0
7.0588 1.3333 0.0
7.6412 1.3333 0.0
8.2236 1.3333 0.0
9.0207 1.3333 0.0
9.8179 1.3333 0.0
10.9089 1.3333 0.0
12 1.3333 0.0
0 1.6667 0.0
1.119 1.6667 0.0
1.6417 1.6667 0.0
1.8859 1.6667 0.0
2 1.6667 0.0
2.2317 1.6667 0.0
3 1.6667 0.0
3.7683 1.6667 0.0
4 1.6667 0.0
4.0369 1.6667 0.0
4.0873 1.6667 0.0
4.1564 1.6667 0.0
4.251 1.6667 0.0
4.3804 1.6667 0.0
4.5575 1.6667 0.0
4.8 1.6667 0.0
5.1319 1.6667 0.0
5.5861 1.6667 0.0
6.2078 1.6667 0.0
7.0588 1.6667 0.0
8.2236 1.6667 0.0
9.8179 1.6667 0.0
12 1.6667 0.0
0 2 0.0
0.5595 2 0.0
1.119 2 0.0
1.3804 2 0.0
1.6417 2 0.0
1.7638 2 0.0
1.8859 2 0.0
1.943 2 0.0
2 2 0.0
2.1158 2 0.0
2.2317 2 0.0
2.6158 2 0.0
3 2 0.0
3.3842 2 0.0
3.7683 2 0.0
3.8842 2 0.0
4 2 0.0
4.0184 2 0.0
4.0369 2 0.0
4.0621 2 0.0
4.0873 2 0.0
4.1219 2 0.0
4.1564 2 0.0
4.2037 2 0.0
4.251 2 0.0
4.3157 2 0.0
4.3804 2 0.0
4.469 2 0.0
4.5575 2 0.0
4.6788 2 0.0
4.8 2 0.0
4.9659 2 0.0
5.1319 2 0.0
5.359 2 0.0
5.5861 2 0.0
5.897 2 0.0
6.2078 2 0.0
6.6333 2 0.0
7.0588 2 0.0
7.6412 2 0.0
8.2236 2 0.0
9.0207 2 0.0
9.8179 2 0.0
10.9089 2 0.0
12 2 0.0
0 2.3333 0.0
1.119 2.3333 0.0
1.6417 2.3333 0.0
1.8859 2.3333 0.0
2 2.3333 0.0
2.2317 2.3333 0.0
3 2.3333 0.0
3.7683 2.3333 0.0
4 2.3333 0.0
4.0369 2.3333 0.0
4.0873 2.3333 0.0
4.1564 2.3333 0.0
4.251 2.3333 0.0
4.3804 2.3333 0.0
4.5575 2.3333 0.0
4.8 2.3333 0.0
5.1319 2.3333 0.0
5.5861 2.3333 0.0
6.2078 2.3333 0.0
7.0588 2.3333 0.0
8.2236 2.3333 0.0
9.8179 2.3333 0.0
12 2.3333 0.0
0 2.6667 0.0
0.5595 2.6667 0.0
1.119 2.6667 0.0
1.3804 2.6667 0.0
1.6417 2.6667 0.0
1.7638 2.6667 0.0
1.8859 2.6667 0.0
1.943 2.6667 0.0
2 2.6667 0.0
2.1158 2.6667 0.0
2.2317 2.6667 0.0
2.6158 2.6667 0.0
3 2.6667 0.0
3.3842 2.6667 0.0
3.7683 2.6667 0.0
3.8842 2.6667 0.0
4 2.6667 0.0
4.0184 2.6667 0.0
4.0369 2.6667 0.0
4.0621 2.6667 0.0
4.0873 2.6667 0.0
4.1219 2.6667 0.0
4.1564 2.6667 0.0
4.2037 2.6667 0.0
4.251 2.6667 0.0
4.3157 2.6667 0.0
4.3804 2.6667 0.0
4.469 2.6667 0.0
4.5575 2.6667 0.0
4.6788 2.6667 0.0
4.8 2.6667 0.0
4.9659 2.6667 0.0
5.1319 2.6667 0.0
5.359 2.6667 0.0
5.5861 2.6667 0.0
5.897 2.6667 0.0
6.2078 2.6667 0.0
6.6333 2.6667 0.0
7.0588 2.6667 0.0
7.6412 2.6667 0.0
8.2236 2.6667 0.0
9.0207 2.6667 0.0
9.8179 2.6667 0.0
10.9089 2.6667 0.0
12 2.6667 0.0
0 3 0.0
1.119 3 0.0
1.6417 3 0.0
1.8859 3 0.0
2 3 0.0
2.2317 3 0.0
3 3 0.0
3.7683 3 0.0
4 3 0.0
4.0369 3 0.0
4.0873 3 0.0
4.1564 3 0.0
4.251 3 0.0
4.3804 3 0.0
4.5575 3 0.0
4.8 3 0.0
5.1319 3 0.0
5.5861 3 0.0
6.2078 3 0.0
7.0588 3 0.0
8.2236 3 0.0
9.8179 3 0.0
12 3 0.0
0 3.3333 0.0
0.5595 3.3333 0.0
1.119 3.3333 0.0
1.3804 3.3333 0.0
1.6417 3.3333 0.0
1.7638 3.3333 0.0
1.8859 3.3333 0.0
1.943 3.3333 0.0
2 3.3333 0.0
2.1158 3.3333 0.0
2.2317 3.3333 0.0
2.6158 3.3333 0.0
3 3.3333 0.0
3.3842 3.3333 0.0
3.7683 3.3333 0.0
3.8842 3.3333 0.0
4 3.3333 0.0
4.0184 3.3333 0.0
4.0369 3.3333 0.0
4.0621 3.3333 0.0
4.0873 3.3333 0.0
4.1219 3.3333 0.0
4.1564 3.3333 0.0
4.2037 3.3333 0.0
4.251 3.3333 0.0
4.3157 3.3333 0.0
4.3804 3.3333 0.0
4.469 3.3333 0.0
4.5575 3.3333 0.0
4.6788 3.3333 0.0
4.8 3.3333 0.0
4.9659 3.3333 0.0
5.1319 3.3333 0.0
5.359 3.3333 0.0
5.5861 3.3333 0.0
5.897 3.3333 0.0
6.2078 3.3333 0.0
6.6333 3.3333 0.0
7.0588 3.3333 0.0
7.6412 3.3333 0.0
8.2236 3.3333 0.0
9.0207 3.3333 0.0
9.8179 3.3333 0.0
10.9089 3.3333 0.0
12 3.3333 0.0
0 3.6667 0.0
1.119 3.6667 0.0
1.6417 3.6667 0.0
1.8859 3.6667 0.0
2 3.6667 0.0
2.2317 3.6667 0.0
3 3.6667 0.0
3.7683 3.6667 0.0
4 3.6667 0.0
4.0369 3.6667 0.0
4.0873 3.6667 0.0
4.1564 3.6667 0.0
4.251 3.6667 0.0
4.3804 3.6667 0.0
4.5575 3.6667 0.0
4.8 3.6667 0.0
5.1319 3.6667 0.0
5.5861 3.6667 0.0
6.2078 3.6667 0.0
7.0588 3.6667 0.0
8.2236 3.6667 0.0
9.8179 3.6667 0.0
12 3.6667 0.0
0 4 0.0
0.5595 4 0.0
1.119 4 0.0
1.3804 4 0.0
1.6417 4 0.0
1.7638 4 0.0
1.8859 4 0.0
1.943 4 0.0
2 4 0.0
2.1158 4 0.0
2.2317 4 0.0
2.6158 4 0.0
3 4 0.0
3.3842 4 0.0
3.7683 4 0.0
3.8842 4 0.0
4 4 0.0
4.0184 4 0.0
4.0369 4 0.0
4.0621 4 0.0
4.0873 4 0.0
4.1219 4 0.0
4.1564 4 0.0
4.2037 4 0.0
4.251 4 0.0
4.3157 4 0.0
4.3804 4 0.0
4.469 4 0.0
4.5575 4 0.0
4.6788 4 0.0
4.8 4 0.0
4.9659 4 0.0
5.1319 4 0.0
5.359 4 0.0
5.5861 4 0.0
5.897 4 0.0
6.2078 4 0.0
6.6333 4 0.0
7.0588 4 0.0
7.6412 4 0.0
8.2236 4 0.0
9.0207 4 0.0
9.8179 4 0.0
10.9089 4 0.0
12 4 0.0
0 4.3323 0.0
1.119 4.3323 0.0
1.6417 4.3323 0.0
1.8859 4.3323 0.0
2 4.3323 0.0
2.2317 4.3323 0.0
3 4.3323 0.0
3.7683 4.3323 0.0
4 4.3323 0.0
4.0369 4.3323 0.0
4.0873 4.3323 0.0
4.1564 4.3323 0.0
4.251 4.3323 0.0
4.3804 4.3323 0.0
4.5575 4.3323 0.0
4.8 4.3323 0.0
5.1319 4.3323 0.0
5.5861 4.3323 0.0
6.2078 4.3323 0.0
7.0588 4.3323 0.0
8.2236 4.3323 0.0
9.8179 4.3323 0.0
12 4.3323 0.0
0 4.6645 0.0
0.5595 4.6645 0.0
1.119 4.6645 0.0
1.3804 4.6645 0.0
1.6417 4.6645 0.0
1.7638 4.6645 0.0
1.8859 4.6645 0.0
1.943 4.6645 0.0
2 4.6645 0.0
2.1158 4.6645 0.0
2.2317 4.6645 0.0
2.6158 4.6645 0.0
3 4.6645 0.0
3.3842 4.6645 0.0
3.7683 4.6645 0.0
3.8842 4.6645 0.0
4 4.6645 0.0
4.0184 4.6645 0.0
4.0369 4.6645 0.0
4.0621 4.6645 0.0
4.0873 4.6645 0.0
4.1219 4.6645 0.0
4.1564 4.6645 0.0
4.2037 4.6645 0.0
4.251 4.6645 0.0
4.3157 4.6645 0.0
4.3804 4.6645 0.0
4.469 4.6645 0.0
4.5575 4.6645 0.0
4.6788 4.6645 0.0
4.8 4.6645 0.0
4.9659 4.6645 0.0
5.1319 4.6645 0.0
5.359 4.6645 0.0
5.5861 4.6645 0.0
5.897 4.6645 0.0
6.2078 4.6645 0.0
6.6333 4.6645 0.0
7.0588 4.6645 0.0
7.6412 4.6645 0.0
8.2236 4.6645 0.0
9.0207 4.6645 0.0
9.8179 4.6645 0.0
10.9089 4.6645 0.0
12 4.6645 0.0
0 4.943 0.0
1.119 4.943 0.0
1.6417 4.943 0.0
1.8859 4.943 0.0
2 4.943 0.0
2.2317 4.943 0.0
3 4.943 0.0
3.7683 4.943 0.0
4 4.943 0.0
4.0369 4.943 0.0
4.0873 4.943 0.0
4.1564 4.943 0.0
4.251 4.943 0.0
4.3804 4.943 0.0
4.5575 4.943 0.0
4.8 4.943 0.0
5.1319 4.943 0.0
5.5861 4.943 0.0
6.2078 4.943 0.0
7.0588 4.943 0.0
8.2236 4.943 0.0
9.8179 4.943 0.0
12 4.943 0.0
0 5.2214 0.0
0.5595 5.2214 0.0
1.119 5.2214 0.0
1.3804 5.2214 0.0
1.6417 5.2214 0.0
1.7638 5.2214 0.0
1.8859 5.2214 0.0
1.943 5.2214 0.0
2 5.2214 0.0
2.1158 5.2214 0.0
2.2317 5.2214 0.0
2.6158 5.2214 0.0
3 5.2214 0.0
3.3842 5.2214 0.0
3.7683 5.2214 0.0
3.8842 5.2214 0.0
4 5.2214 0.0
4.0184 5.2214 0.0
4.0369 5.2214 0.0
4.0621 5.2214 0.0
4.0873 5.2214 0.0
4.1219 5.2214 0.0
4.1564 5.2214 0.0
4.2037 5.2214 0.0
4.251 5.2214 0.0
4.3157 5.2214 0.0
4.3804 5.2214 0.0
4.469 5.2214 0.0
4.5575 5.2214 0.0
4.6788 5.2214 0.0
4.8 5.2214 0.0
4.9659 5.2214 0.0
5.1319 5.2214 0.0
5.359 5.2214 0.0
5.5861 5.2214 0.0
5.897 5.2214 0.0
6.2078 5.2214 0.0
6.6333 5.2214 0.0
7.0588 5.2214 0.0
7.6412 5.2214 0.0
8.2236 5.2214 0.0
9.0207 5.2214 0.0
9.8179 5.2214 0.0
10.9089 5.2214 0.0
12 5.2214 0.0
0 5.4547 0.0
1.119 5.4547 0.0
1.6417 5.4547 0.0
1.8859 5.4547 0.0
2 5.4547 0.0
2.2317 5.4547 0.0
3 5.4547 0.0
3.7683 5.4547 0.0
4 5.4547 0.0
4.0369 5.4547 0.0
4.0873 5.4547 0.0
4.1564 5.4547 0.0
4.251 5.4547 0.0
4.3804 5.4547 0.0
4.5575 5.4547 0.0
4.8 5.4547 0.0
5.1319 5.4547 0.0
5.5861 5.4547 0.0
6.2078 5.4547 0.0
7.0588 5.4547 0.0
8.2236 5.4547 0.0
9.8179 5.4547 0.0
12 5.4547 0.0
0 5.688 0.0
0.5595 5.688 0.0
1.119 5.688 0.0
1.3804 5.688 0.0
1.6417 5.688 0.0
1.7638 5.688 0.0
1.8859 5.688 0.0
1.943 5.688 0.0
2 5.688 0.0
2.1158 5.688 0.0
2.2317 5.688 0.0
2.6158 5.688 0.0
3 5.688 0.0
3.3842 5.688 0.0
3.7683 5.688 0.0
3.8842 5.688 0.0
4 5.688 0.0
4.0184 5.688 0.0
4.0369 5.688 0.0
4.0621 5.688 0.0
4.0873 5.688 0.0
4.1219 5.688 0.0
4.1564 5.688 0.0
[...]
POINT_DATA 1881
SCALARS Displacement_R double 1
LOOKUP_TABLE default
5.16528e-07
0.000175342
0.000355416
0.000442218
0.000531295
0.000573817
0.000616961
0.000637361
0.000657872
0.000700008
0.000742827
0.000889695
0.00104479
0.00120877
0.00138193
0.00143604
0.00149097
0.00149978
0.00150865
0.00152078
0.00153295
0.00154972
0.00156653
0.00158969
0.00161299
0.0016451
0.00167748
0.00172224
0.00176746
0.00183023
0.00189386
0.00198241
0.00207267
0.00219875
0.00232771
0.00250871
0.00269442
0.00295565
0.0032239
0.00360039
0.00398514
0.00452057
0.00506217
0.00580734
0.00655491
5.23765e-07
0.000355363
0.000531245
0.000616925
0.000657847
0.000742832
0.00104497
0.00138238
0.00149153
0.00150923
0.00153356
0.00156717
0.00161369
0.00167824
0.00176833
0.00189488
0.00207392
0.00232929
0.00269646
0.00322654
0.00398843
0.00506595
0.00655872
5.23739e-07
0.000175212
0.000355217
0.000442021
0.000531132
0.000573682
0.000616862
0.000637282
0.000657815
0.000700002
0.000742881
0.000890019
0.00104551
0.00120999
0.00138379
0.00143812
0.00149328
0.00150213
0.00151104
0.00152322
0.00153544
0.00155229
0.00156917
0.00159243
0.00161584
0.0016481
0.00168062
0.0017256
0.00177103
0.0018341
0.00189804
0.00198703
0.00207774
0.00220447
0.00233409
0.00251601
0.00270264
0.00296511
0.00323454
0.00361249
0.00399848
0.00453515
0.00507749
0.00582294
0.00657032
5.36316e-07
0.000355033
0.000531012
0.00061683
0.000657841
0.000743057
0.00104653
0.00138626
0.00149631
0.00151416
0.0015387
0.00157261
0.00161954
0.00168469
0.00177563
0.00190341
0.00208424
0.00234221
0.00271307
0.00324798
0.00401524
0.00509668
0.00658966
5.44809e-07
0.000174969
0.000354901
0.000441766
0.000531026
0.00057368
0.000616989
0.000637478
0.000658086
0.000700443
0.00074352
0.000891513
0.0010482
0.00121425
0.00139
0.00144499
0.00150084
0.0015098
0.00151883
0.00153117
0.00154355
0.00156062
0.00157772
0.00160129
0.00162502
0.00165772
0.00169069
0.0017363
0.00178237
0.00184636
0.00191124
0.00200156
0.00209364
0.00222229
0.0023539
0.00253858
0.00272797
0.00299415
0.00326711
0.0036494
0.00403901
0.00457932
0.00512379
0.00587001
0.00661692
5.58126e-07
0.000354956
0.000531345
0.000617524
0.000658747
0.000744493
0.0010508
0.00139528
0.00150715
0.00152531
0.00155027
0.00158477
0.00163255
0.00169889
0.00179154
0.00192181
0.00210624
0.00236944
0.00274766
0.00329218
0.00406992
0.00515882
0.00665211
5.75925e-07
0.000175102
0.000355396
0.000442561
0.000532249
0.000575152
0.000618747
0.000639383
0.000660146
0.000702848
0.000746309
0.000895885
0.00105469
0.00122345
0.00140252
0.00145863
0.00151566
0.00152481
0.00153404
0.00154664
0.00155929
0.00157673
0.00159421
0.00161831
0.00164257
0.00167601
0.00170974
0.00175641
0.00180358
0.0018691
0.00193555
0.0020281
0.00212248
0.00225437
0.00238928
0.00257856
0.00277255
0.00304487
0.00332361
0.00371293
0.00410835
0.00465434
0.00520205
0.00594934
0.00669539
5.81487e-07
0.000356477
0.000534078
0.00062103
0.000662671
0.00074939
0.00106038
0.00141223
0.00152689
0.00154551
0.00157112
0.00160653
0.00165559
0.00172374
0.00181899
0.001953
0.00214288
0.00241394
0.00280315
0.00336182
0.00415455
0.00525356
0.00674678
6.09348e-07
0.000176596
0.000358569
0.000446624
0.000537331
0.000580761
0.000624922
0.000645837
0.00066689
0.000710211
0.000754339
0.000906491
0.00106854
0.00124129
0.00142515
0.00148287
0.00154157
0.00155099
0.0015605
0.00157348
0.00158651
0.00160449
0.0016225
0.00164734
0.00167236
0.00170685
0.00174166
0.00178983
0.00183853
0.00190621
0.0019749
0.00207058
0.00216818
0.0023046
0.00244415
0.00263982
0.00284018
0.00312092
0.0034075
0.00380616
0.00420909
0.00476214
0.00531363
0.00606185
0.00680641
5.88736e-07
0.000362113
0.000542611
0.000631083
0.000673487
0.00076188
0.00108001
0.00144213
0.00156057
0.00157983
0.00160631
0.00164295
0.00169373
0.00176432
0.00186305
0.00200208
0.00219922
0.00248071
0.00288439
0.00346123
0.00427226
0.00538235
0.00687425
6.2825e-07
0.000181245
0.000367767
0.000457912
0.000550759
0.000595214
0.000640431
0.000661849
0.000683412
0.000727797
0.000773033
0.000929192
0.00109593
0.00127416
0.00146439
0.00152421
0.0015851
0.00159488
0.00160474
0.00161821
0.00163174
0.0016504
0.00166911
0.00169492
0.00172091
0.00175676
0.00179295
0.00184306
0.00189374
0.00196419
0.00203572
0.00213541
0.00223714
0.00237933
0.00252474
0.0027285
0.00293683
0.00322794
0.00352397
0.00393351
0.00434474
0.00490506
0.00545988
0.00620816
0.00695027
5.49295e-07
0.000376284
0.000562811
0.000654088
0.000697825
0.000789005
0.00111769
0.00149335
0.00161659
0.00163664
0.00166423
0.0017024
0.00175532
0.00182895
0.00193198
0.0020772
0.00228327
0.00257753
0.00299866
0.0035966
0.00442701
0.00554639
0.00703444
6.23775e-07
0.000192212
0.000388797
0.000483191
0.000580124
0.000626449
0.000673527
0.000695815
0.000718248
0.000764406
0.000811436
0.000973757
0.00114717
0.00133269
0.001531
0.00159341
0.00165697
0.00166719
0.00167748
0.00169156
0.00170569
0.00172518
0.00174473
0.0017717
0.00179886
0.00183634
0.00187419
0.00192661
0.00197964
0.0020534
0.00212831
0.00223275
0.00233935
0.00248836
0.00264069
0.00285388
0.00307137
0.00337413
0.00368036
0.00410086
0.00451966
0.00508547
0.00564169
0.0063881
0.00712639
3.61674e-07
0.00040648
0.000604316
0.000700458
0.000746431
0.000842141
0.00118645
0.00157949
0.00170843
0.00172942
0.00175828
0.00179824
0.00185365
0.00193076
0.00203872
0.00219098
0.00240718
0.00271588
0.00315636
0.0037761
0.00462297
0.00574561
0.00722569
5.13238e-07
0.000215031
0.000431306
0.000533474
0.000637529
0.000687018
0.00073719
0.000760908
0.000784759
0.000833781
0.000883663
0.00105554
0.00123864
0.0014339
0.00164214
0.00170756
0.00177417
0.00178487
0.00179566
0.0018104
0.00182521
0.00184563
0.00186611
0.00189436
0.00192282
0.00196209
0.00200174
0.00205667
0.00211224
0.00218957
0.00226813
0.00237769
0.00248955
0.00264593
0.0028057
0.00302894
0.00325596
0.0035702
0.00388566
0.00431464
0.00473765
0.00530421
0.00585783
0.00659904
0.00733181
-3.39469e-08
0.000459067
0.000674228
0.000777478
0.000826683
0.000928905
0.00129483
0.0017083
0.00184307
0.00186498
0.00189511
0.0019368
0.00199458
0.00207498
0.00218755
0.00234636
0.00257205
0.00289432
0.00335243
0.00398925
0.00484305
0.00595836
0.00742589
2.32129e-07
0.000250533
0.000495248
0.00060774
0.000720872
0.00077435
0.000828412
0.000853934
0.000879579
0.000932245
0.000985778
0.00117005
0.00136536
0.00157192
0.0017902
0.00185836
0.00192763
0.00193874
0.00194995
0.00196526
0.00198063
0.00200183
0.00202307
0.00205236
0.00208187
0.00212256
0.00216364
0.00222053
0.00227809
0.00235819
0.0024396
0.0025532
0.00266925
0.00283155
0.0029973
0.00322848
0.00346264
0.00378451
0.00410474
0.00453575
0.00495686
0.00551744
0.00606399
0.00679715
0.00752379
-7.15586e-07
0.000533255
0.000769192
0.000880785
0.000933859
0.00104409
0.00143762
0.00187339
0.00201313
0.00203578
0.00206688
0.00210989
0.00216943
0.00225218
0.00236797
0.00253139
0.00276397
0.00309641
0.00356692
0.00421145
0.00505904
0.00615649
0.00760868
-2.96361e-07
0.000299714
0.000580301
0.00070437
0.000827276
0.000885076
0.000943441
0.000971001
0.000998702
0.00105564
0.00111358
0.00131358
0.00152454
0.00174458
0.00197296
0.00204343
0.00211474
0.00212616
0.00213767
0.00215338
0.00216914
0.00219086
0.00221262
0.00224259
0.00227276
0.00231432
0.00235626
0.00241432
0.00247305
0.00255479
0.00263791
0.00275406
0.00287285
0.00303919
0.00320907
0.00344545
0.00368366
0.00400826
0.00432793
0.00475388
0.00516707
0.00571582
0.00625187
0.0069751
0.0076955
-1.68067e-06
0.000627448
0.000884577
0.00100479
0.0010621
0.00118164
0.00161028
0.00207092
0.00221447
0.00223759
0.0022693
0.00231306
0.00237353
0.00245741
0.00257464
0.00274022
0.00297657
0.00331527
0.00379201
0.00443351
0.00526228
0.00633401
0.00776964
-1.16613e-06
0.000362138
0.00068346
0.000818655
0.000950545
0.00101248
0.00107516
0.00110486
0.00113477
0.00119649
0.00125959
0.00147915
0.0017101
0.00194638
0.00218497
0.00225722
0.00232984
0.00234144
0.00235311
0.00236903
0.00238498
0.00240694
0.0024289
0.00245912
0.0024895
0.0025313
0.00257344
0.00263172
0.00269068
0.00277278
0.00285637
0.00297342
0.00309344
0.00326185
0.00343388
0.00367247
0.00391126
0.00423317
0.00454671
0.00496096
0.00536129
0.00589407
0.00641763
0.00713013
0.00784461
-2.85672e-06
0.000737488
0.00101322
0.00114159
0.00120333
0.00133342
0.00180574
0.00229428
0.00244034
0.00246367
0.00249559
0.00253951
0.00260002
0.00268372
0.00280052
0.00296574
0.00320277
0.00354387
0.0040202
0.00464772
0.00544733
0.00648883
0.00790803
-2.44486e-06
0.000435352
0.000799256
0.000943713
0.00108285
0.00114847
0.00121537
0.00124725
0.00127951
0.00134651
0.00141556
0.00165872
0.00191416
0.0021695
0.00241837
0.00249192
0.00256516
0.0025768
0.0025885
0.00260444
0.00262039
0.00264231
0.00266419
0.00269425
0.00272441
0.00276585
0.00280756
0.00286519
0.00292348
0.00300471
0.0030876
0.00320404
0.00332388
0.00349255
0.00366486
0.00390257
0.00413824
0.00445195
0.00475425
0.00515146
0.00553559
0.00605016
0.00656061
0.00726252
0.00797167
-4.20045e-06
0.000856771
0.001147
0.00128311
0.00134954
0.00149149
0.00201561
0.00253458
0.00268208
0.00270538
0.00273717
0.00278077
0.00284058
0.00292301
0.00303779
0.00320044
0.00343546
0.00377549
0.00424455
0.00484796
0.00561138
0.0066212
0.00802514
-4.24307e-06
0.000514417
0.000920116
0.00107147
0.00121633
0.00128547
0.00135674
0.00139098
0.00142581
0.00149871
0.00157453
0.00184479
0.00212824
0.00240459
0.00266368
0.00273818
0.00281156
0.00282315
0.00283479
0.00285063
0.00286645
0.00288814
0.00290975
0.00293938
0.00296903
0.00300968
0.00305052
0.00310686
0.0031638
0.00324321
0.00332442
0.00343901
0.00355751
0.00372493
0.00389577
0.00412946
0.00435821
0.00465859
0.0049455
0.00532213
0.00568839
0.00618422
0.00668193
0.00737406
0.00807861
-5.88633e-06
0.000977153
0.00127869
0.00142314
0.00149485
0.00165011
0.00223165
0.00278219
0.00293052
0.00295368
0.00298519
0.00302821
0.00308697
0.00316752
0.00327927
0.00343774
0.00366863
0.00400448
0.00445933
0.0050303
0.00575393
0.0067329
0.00812337
-6.91877e-06
0.000592277
0.00103743
0.00119391
0.00134456
0.00141786
0.00149434
0.00153134
0.00156914
0.00164868
0.00173197
0.00203143
0.00234431
0.00264207
0.00291108
0.00298638
0.00305979
0.00307132
0.00308289
0.0030986
0.00311426
0.0031357
0.00315701
0.00318615
0.00321524
0.003255
0.00329483
0.00334961
0.00340486
0.00348185
0.00356072
0.00367252
0.00378879
0.00395366
0.00412137
0.00434782
0.00456598
0.00484874
0.0051175
0.00547184
0.00581999
0.00629774
0.00678374
0.00746725
0.008168
-8.61414e-06
0.00108987
0.00140273
0.00155792
0.0016359
0.00180585
0.00244609
0.00302729
0.0031765
0.00319957
0.00323086
0.00327344
0.00333129
0.0034101
0.00351861
0.00367194
0.00389709
0.00422594
0.00465978
0.00519253
0.00587582
0.00682622
0.00820527
-1.13301e-05
0.000660904
0.00114289
0.00130424
0.00146326
0.0015425
0.00162583
0.00166624
0.00170756
0.00179454
0.0018857
0.00221434
0.00255539
0.00287311
0.00315149
0.0032277
0.00330143
0.00331298
0.00332454
0.00334022
0.00335584
0.00337718
0.00339836
0.00342724
0.00345599
0.00349514
0.00353417
0.00358759
0.0036412
0.00371555
0.00379166
0.0039
0.00401334
0.00417456
0.00433744
0.00455338
0.00475767
0.00501977
0.00526907
0.00560104
0.00593186
0.00639291
0.00686852
0.00754475
0.00824245
-1.36848e-05
0.00118734
0.00151608
0.00168629
0.00177188
0.00195747
0.00265281
0.00326174
0.0034125
0.0034357
0.00346712
0.00350974
0.00356739
0.00364529
0.00375117
0.00389903
0.00411724
0.00443631
0.00484287
0.00533438
0.00597897
0.00690377
0.00827346
-1.89115e-05
0.000712897
0.00122987
0.0013977
0.00157054
0.00165846
0.00175089
0.00179552
0.00184099
0.00193608
0.00203505
0.00239061
0.00275602
0.00309059
0.00337767
0.00345507
0.0035298
0.00354149
0.00355319
0.00356906
0.00358486
0.00360643
0.0036278
0.0036569
0.00368578
0.00372493
0.00376373
0.00381641
0.00386876
0.00394064
0.00401379
0.00411815
0.00422804
0.0043846
0.00454084
0.00474304
0.00493086
0.00517075
0.00540056
0.0057112
0.0060261
0.00647222
0.00693881
0.00760906
0.00830441
-2.28222e-05
0.0012639
0.00161778
0.00180841
0.00190308
0.00210459
0.00284694
0.00347922
0.00363266
0.00365633
0.00368838
0.00373182
0.00379038
0.00386877
0.00397336
0.00411596
0.00432633
0.00463275
0.00500674
0.00545663
0.00606555
0.00696794
0.00833021
-3.12521e-05
0.000742856
0.00129404
0.00147202
0.00166641
0.0017661
0.00186997
0.00191966
0.00196989
0.00207351
0.00217977
0.00255817
0.00294216
0.00328935
0.0035845
0.00366347
0.00374008
0.00375209
0.00376413
0.00378047
0.00379674
0.00381895
0.00384096
0.00387087
0.00390048
0.00394045
0.0039798
0.00403265
0.00408444
0.00415433
0.00422453
0.00432457
0.00443061
0.00458149
0.00472911
0.00491467
0.00508443
0.00530192
0.00551319
0.00580428
0.00610495
0.006538
0.00699688
0.00766237
0.00835598
-3.74504e-05
0.00131647
0.00170863
0.00192489
0.00202999
0.00224704
0.00302532
0.00367586
0.00383336
0.0038579
0.00389117
0.0039363
0.003997
0.00407755
0.00418266
0.00432076
0.00452267
0.00481331
0.005151
0.00556094
0.00613789
0.00702094
0.00837749
-4.92346e-05
0.000748299
0.00133364
0.00152747
0.00175229
0.00186631
0.00198351
0.00203898
0.0020945
0.00220696
0.00231959
0.00271573
0.0031114
0.00346653
0.00376933
0.00385027
0.00392976
0.0039423
0.00395488
0.00397198
0.00398902
0.0040123
0.00403535
0.00406667
0.00409761
0.00413921
0.00417989
0.00423397
0.00428612
0.00435486
0.00442234
0.00451786
0.00461976
0.00476384
0.00490073
0.00506736
0.00521856
0.0054146
0.00560886
0.00588249
0.00617069
0.00659248
0.00704481
0.00770658
0.00839895
-5.76113e-05
0.00134425
0.00179029
0.0020358
0.00215238
0.00238427
0.00318597
0.0038498
0.00401281
0.00403861
0.00407367
0.00412125
0.00418514
0.00426933
0.00437698
0.00451196
0.00470511
0.00497657
0.00527611
0.00564917
0.00619807
0.00706464
0.00841688
-7.18576e-05
0.000729737
0.00134887
0.00156634
0.00183008
0.0019597
0.00209133
0.00215304
0.00221423
0.00233582
0.00245384
0.00286235
0.0032625
0.00362102
0.00393131
0.00401462
0.00409808
0.00411134
0.00412465
0.00414276
0.00416081
0.00418546
0.00420988
0.00424302
0.00427572
0.00431957
0.00436224
0.00441852
0.00447202
0.00454083
0.00460617
0.00469718
0.00479476
0.00493067
0.00505467
0.00520107
0.00533421
0.00551047
0.00568955
0.00594792
0.00622532
0.00663754
0.00708431
0.00774326
0.00843478
-8.09558e-05
0.00134831
0.00186472
0.0021408
0.00226937
0.00251555
0.00332833
0.00400106
0.00417114
0.00419855
0.00423578
0.00428628
0.00435401
0.00444287
0.00455492
0.00468892
0.00487331
0.00512197
0.00538348
0.00572343
0.00624805
0.00710065
0.00844974
-9.54187e-05
0.00069016
0.00134152
0.00159233
0.00190154
0.00204645
0.00219291
0.00226092
0.00232784
0.00245904
0.00258167
0.00299755
0.00339539
0.0037533
0.00407115
0.0041573
0.00424588
0.00425999
0.00427416
0.00429341
0.00431259
0.00433877
0.00436468
0.00439985
0.00443452
0.00448095
0.00452603
0.00458521
0.004641
0.00471143
0.00477559
0.00486239
0.00495554
0.00508154
0.00519074
0.0053167
0.00543302
0.00559154
0.00575731
0.00600254
0.00627066
0.00667483
0.00711686
0.00777371
0.0084647
-0.00010222
0.00133106
0.00193334
0.00223924
0.00237941
0.00263992
0.00345261
0.00413075
0.00430961
0.0043388
0.00437831
0.00443184
0.0045036
0.00459761
0.00471544
0.00485127
0.00502731
0.00524951
0.0054748
0.00578565
0.00628948
0.00713031
0.00847718
-0.000113363
0.000634104
0.00131446
0.00160966
0.0019677
0.00212639
0.00228777
0.00236152
0.0024337
0.00257522
0.00270222
0.00312117
0.00351074
0.00386487
0.00419045
0.00428005
0.0043749
0.00438992
0.00440494
0.00442534
0.00444561
0.00447327
0.00450065
0.00453783
0.00457448
0.00462356
0.00467119
0.00473366
0.00479236
0.00486614
0.00493052
0.00501376
0.00510241
0.00521637
0.00530933
0.00541571
0.00551683
0.0056598
0.00581405
0.00604808
0.00630826
0.0067057
0.0071437
0.00779902
0.0084897
-0.00011387
0.0012958
0.00199687
0.00233088
0.00248101
0.00275672
0.00355997
0.00424091
0.00443041
0.00446131
0.0045029
0.00455926
0.00463492
0.00473402
0.00485834
0.00499931
0.00516774
0.00536009
0.0055521
0.00583773
0.00632385
0.00715478
0.00850014
-0.000117293
0.000566636
0.00127137
0.00162225
0.00202872
0.00219933
0.00237575
0.00245396
0.00253024
0.00268289
0.00281475
0.00323334
0.00360976
0.00395785
0.00429125
0.00438516
0.00448733
0.00450313
0.00451887
0.00454021
0.0045614
0.00459038
0.00461912
0.00465818
0.0046967
0.00474827
0.00479833
0.00486422
0.00492601
0.00500471
0.00507118
0.0051519
0.00523592
0.00533544
0.00541146
0.00549988
0.00558757
0.00571712
0.00586146
0.00608605
0.00633942
0.00673131
0.00716584
0.0078201
0.00851061
-0.000107332
0.0012465
0.00205509
0.00241562
0.00257278
0.00286532
0.00365174
0.00433364
0.00453567
0.00456786
0.00461105
0.00466996
0.00474919
0.00485292
0.00498379
0.0051333
0.00529515
0.00545492
0.00561724
0.00588123
0.00635234
0.00717499
0.00851935
-9.86735e-05
0.000492666
0.00121653
0.00163322
0.00208395
0.00226529
0.00245678
0.00253761
0.00261636
0.0027806
0.00291865
0.00333425
0.00369389
0.00403451
0.00437565
0.00447508
0.00458514
0.0046014
0.00461752
0.00463948
0.00466141
0.00469155
0.00472156
0.00476232
0.00480246
0.00485626
0.00490838
0.00497771
0.0050424
0.00512702
0.00519777
0.00527745
0.00535652
0.00543919
0.0054985
0.005571
0.00564695
0.00576512
0.00590096
0.00611768
0.00636521
0.00675255
0.00718409
0.00783764
0.00852809
-7.46919e-05
0.00118763
0.00210701
0.00249313
0.00265407
0.00296512
0.00372934
0.00441091
0.00462706
0.00465974
0.00470409
0.00476537
0.00484765
0.00495528
0.00509243
0.00525331
0.00540977
0.00553536
0.0056718
0.00591743
0.00637592
0.00719165
0.0085354
-5.07095e-05
0.000416273
0.00115428
0.00164463
0.00213234
0.002325
0.0025305
0.00261237
0.00269233
0.00286729
0.00301384
0.00342444
0.00376482
0.0040973
0.00444577
0.00455244
0.00467005
0.0046862
0.00470226
0.00472461
0.00474728
0.0047786
0.00480977
0.00485201
0.00489336
0.00494918
0.00500279
0.00507558
0.00514286
0.0052335
0.00531077
0.00539144
0.00546476
0.00552863
0.00557219
0.00563091
0.00569669
0.00580531
0.00593387
0.00614406
0.00638658
0.0067702
0.00719916
0.00785226
0.00854271
-1.0791e-05
0.0011232
0.0021516
0.00256279
0.00272619
0.00305653
0.00379471
0.00447495
0.00470622
0.0047384
0.00478399
0.00484756
0.00493219
0.00504304
0.0051862
0.0053601
0.00551239
0.00560344
0.00571755
0.00594764
0.00639549
0.00720544
0.00854886
3.0258e-05
0.00034046
0.00108852
0.00165767
0.00217267
0.00237999
0.00259559
0.00267853
0.00276018
0.00294216
0.00310073
0.00350465
0.00382438
0.00414859
0.00450362
0.0046199
0.00474311
0.00475844
0.00477421
0.0047972
0.00482098
0.00485356
0.00488558
0.00492913
0.00497112
0.00502888
0.00508345
0.00515945
0.00522942
0.00532508
0.00541065
0.00549517
0.00556112
0.00560514
0.00563437
0.00568139
0.00573832
0.00583902
0.00596129
0.00616611
0.00640431
0.00678492
0.00721164
0.00786448
0.00855497
8.63163e-05
0.00105716
0.00218721
0.00262219
0.00279157
0.00313964
0.00384928
0.00452725
0.00477318
0.00480447
0.00485234
0.00491782
0.00500411
0.00511777
0.00526676
0.00545341
0.00560281
0.00566055
0.00575569
0.00597273
0.00641168
0.00721682
0.0085601
0.000144021
0.000267559
0.00102261
0.00167276
0.00220349
0.00243234
0.0026491
0.00273647
0.00282333
0.00300434
0.00317991
0.00357547
0.00387412
0.00419039
0.00455062
0.00467986
0.00480391
0.00481816
0.00483453
0.00485945
0.00488431
0.00491821
0.00495039
0.00499519
0.00503731
0.00509681
0.00515236
0.00523058
0.00530411
0.00540289
0.00549735
0.00558978
0.0056456
0.00567012
0.00568656
0.00572384
0.00577308
0.00586729
0.00598413
0.00618457
0.00641902
0.0067972
0.00722198
0.0078747
0.00856524
0.000214239
0.000992336
0.00221263
0.00266797
0.00285404
0.0032153
0.00389469
0.00456917
0.00482677
0.00486008
0.00491117
0.00497777
0.00506546
0.00518196
0.00533631
0.00553329
0.00568118
0.00570826
0.00578746
0.00599358
0.00642509
0.00722625
0.00856951
0.000286341
0.000199289
0.000959143
0.00168986
0.00222349
0.00248429
0.00268689
0.0027871
0.00288554
0.00305325
0.003252
0.00363742
0.00391536
0.00422443
0.00458775
0.00473467
0.0048499
0.00486574
0.00488669
0.00491416
0.0049387
0.00497375
0.0050056
0.0050512
0.00509399
0.00515385
0.00521199
0.00528992
0.00536875
0.00546843
0.00557045
0.0056763
0.00571795
0.00572504
0.00572998
0.00575948
0.00580197