# vtk DataFile Version 2.0
./vtk
ASCII

DATASET UNSTRUCTURED_GRID
POINTS 889 double
0 0 0.0
0.5 0 0.0
1 0 0.0
1.5 0 0.0
2 0 0.0
2.5 0 0.0
3 0 0.0
3.5 0 0.0
4 0 0.0
4.5 0 0.0
5 0 0.0
6.9457 0 0.0
8.8914 0 0.0
12.3514 0 0.0
15.8114 0 0.0
21.9642 0 0.0
28.1171 0 0.0
39.0585 0 0.0
50 0 0.0
0 -0.5 0.0
1 -0.5 0.0
2 -0.5 0.0
3 -0.5 0.0
4 -0.5 0.0
5 -0.5 0.0
8.8914 -0.5 0.0
15.8114 -0.5 0.0
28.1171 -0.5 0.0
50 -0.5 0.0
0 -1 0.0
0.5 -1 0.0
1 -1 0.0
1.5 -1 0.0
2 -1 0.0
2.5 -1 0.0
3 -1 0.0
3.5 -1 0.0
4 -1 0.0
4.5 -1 0.0
5 -1 0.0
6.9457 -1 0.0
8.8914 -1 0.0
12.3514 -1 0.0
15.8114 -1 0.0
21.9642 -1 0.0
28.1171 -1 0.0
39.0585 -1 0.0
50 -1 0.0
0 -1.5 0.0
1 -1.5 0.0
2 -1.5 0.0
3 -1.5 0.0
4 -1.5 0.0
5 -1.5 0.0
8.8914 -1.5 0.0
15.8114 -1.5 0.0
28.1171 -1.5 0.0
50 -1.5 0.0
0 -2 0.0
0.5 -2 0.0
1 -2 0.0
1.5 -2 0.0
2 -2 0.0
2.5 -2 0.0
3 -2 0.0
3.5 -2 0.0
4 -2 0.0
4.5 -2 0.0
5 -2 0.0
6.9457 -2 0.0
8.8914 -2 0.0
12.3514 -2 0.0
15.8114 -2 0.0
21.9642 -2 0.0
28.1171 -2 0.0
39.0585 -2 0.0
50 -2 0.0
0 -2.5 0.0
1 -2.5 0.0
2 -2.5 0.0
3 -2.5 0.0
4 -2.5 0.0
5 -2.5 0.0
8.8914 -2.5 0.0
15.8114 -2.5 0.0
28.1171 -2.5 0.0
50 -2.5 0.0
0 -3 0.0
0.5 -3 0.0
1 -3 0.0
1.5 -3 0.0
2 -3 0.0
2.5 -3 0.0
3 -3 0.0
3.5 -3 0.0
4 -3 0.0
4.5 -3 0.0
5 -3 0.0
6.9457 -3 0.0
8.8914 -3 0.0
12.3514 -3 0.0
15.8114 -3 0.0
21.9642 -3 0.0
28.1171 -3 0.0
39.0585 -3 0.0
50 -3 0.0
0 -3.5 0.0
1 -3.5 0.0
2 -3.5 0.0
3 -3.5 0.0
4 -3.5 0.0
5 -3.5 0.0
8.8914 -3.5 0.0
15.8114 -3.5 0.0
28.1171 -3.5 0.0
50 -3.5 0.0
0 -4 0.0
0.5 -4 0.0
1 -4 0.0
1.5 -4 0.0
2 -4 0.0
2.5 -4 0.0
3 -4 0.0
3.5 -4 0.0
4 -4 0.0
4.5 -4 0.0
5 -4 0.0
6.9457 -4 0.0
8.8914 -4 0.0
12.3514 -4 0.0
15.8114 -4 0.0
21.9642 -4 0.0
28.1171 -4 0.0
39.0585 -4 0.0
50 -4 0.0
0 -4.5 0.0
1 -4.5 0.0
2 -4.5 0.0
3 -4.5 0.0
4 -4.5 0.0
5 -4.5 0.0
8.8914 -4.5 0.0
15.8114 -4.5 0.0
28.1171 -4.5 0.0
50 -4.5 0.0
0 -5 0.0
0.5 -5 0.0
1 -5 0.0
1.5 -5 0.0
2 -5 0.0
2.5 -5 0.0
3 -5 0.0
3.5 -5 0.0
4 -5 0.0
4.5 -5 0.0
5 -5 0.0
6.9457 -5 0.0
8.8914 -5 0.0
12.3514 -5 0.0
15.8114 -5 0.0
21.9642 -5 0.0
28.1171 -5 0.0
39.0585 -5 0.0
50 -5 0.0
0 -5.5 0.0
1 -5.5 0.0
2 -5.5 0.0
3 -5.5 0.0
4 -5.5 0.0
5 -5.5 0.0
8.8914 -5.5 0.0
15.8114 -5.5 0.0
28.1171 -5.5 0.0
50 -5.5 0.0
0 -6 0.0
0.5 -6 0.0
1 -6 0.0
1.5 -6 0.0
2 -6 0.0
2.5 -6 0.0
3 -6 0.0
3.5 -6 0.0
4 -6 0.0
4.5 -6 0.0
5 -6 0.0
6.9457 -6 0.0
8.8914 -6 0.0
12.3514 -6 0.0
15.8114 -6 0.0
21.9642 -6 0.0
28.1171 -6 0.0
39.0585 -6 0.0
50 -6 0.0
0 -6.5 0.0
1 -6.5 0.0
2 -6.5 0.0
3 -6.5 0.0
4 -6.5 0.0
5 -6.5 0.0
8.8914 -6.5 0.0
15.8114 -6.5 0.0
28.1171 -6.5 0.0
50 -6.5 0.0
0 -7 0.0
0.5 -7 0.0
1 -7 0.0
1.5 -7 0.0
2 -7 0.0
2.5 -7 0.0
3 -7 0.0
3.5 -7 0.0
4 -7 0.0
4.5 -7 0.0
5 -7 0.0
6.9457 -7 0.0
8.8914 -7 0.0
12.3514 -7 0.0
15.8114 -7 0.0
21.9642 -7 0.0
28.1171 -7 0.0
39.0585 -7 0.0
50 -7 0.0
0 -7.5 0.0
1 -7.5 0.0
2 -7.5 0.0
3 -7.5 0.0
4 -7.5 0.0
5 -7.5 0.0
8.8914 -7.5 0.0
15.8114 -7.5 0.0
28.1171 -7.5 0.0
50 -7.5 0.0
0 -8 0.0
0.5 -8 0.0
1 -8 0.0
1.5 -8 0.0
2 -8 0.0
2.5 -8 0.0
3 -8 0.0
3.5 -8 0.0
4 -8 0.0
4.5 -8 0.0
5 -8 0.0
6.9457 -8 0.0
8.8914 -8 0.0
12.3514 -8 0.0
15.8114 -8 0.0
21.9642 -8 0.0
28.1171 -8 0.0
39.0585 -8 0.0
50 -8 0.0
0 -8.5 0.0
1 -8.5 0.0
2 -8.5 0.0
3 -8.5 0.0
4 -8.5 0.0
5 -8.5 0.0
8.8914 -8.5 0.0
15.8114 -8.5 0.0
28.1171 -8.5 0.0
50 -8.5 0.0
0 -9 0.0
0.5 -9 0.0
1 -9 0.0
1.5 -9 0.0
2 -9 0.0
2.5 -9 0.0
3 -9 0.0
3.5 -9 0.0
4 -9 0.0
4.5 -9 0.0
5 -9 0.0
6.9457 -9 0.0
8.8914 -9 0.0
12.3514 -9 0.0
15.8114 -9 0.0
21.9642 -9 0.0
28.1171 -9 0.0
39.0585 -9 0.0
50 -9 0.0
0 -9.5 0.0
1 -9.5 0.0
2 -9.5 0.0
3 -9.5 0.0
4 -9.5 0.0
5 -9.5 0.0
8.8914 -9.5 0.0
15.8114 -9.5 0.0
28.1171 -9.5 0.0
50 -9.5 0.0
0 -10 0.0
0.5 -10 0.0
1 -10 0.0
1.5 -10 0.0
2 -10 0.0
2.5 -10 0.0
3 -10 0.0
3.5 -10 0.0
4 -10 0.0
4.5 -10 0.0
5 -10 0.0
6.9457 -10 0.0
8.8914 -10 0.0
12.3514 -10 0.0
15.8114 -10 0.0
21.9642 -10 0.0
28.1171 -10 0.0
39.0585 -10 0.0
50 -10 0.0
0 -10.5 0.0
1 -10.5 0.0
2 -10.5 0.0
3 -10.5 0.0
4 -10.5 0.0
5 -10.5 0.0
8.8914 -10.5 0.0
15.8114 -10.5 0.0
28.1171 -10.5 0.0
50 -10.5 0.0
0 -11 0.0
0.5 -11 0.0
1 -11 0.0
1.5 -11 0.0
2 -11 0.0
2.5 -11 0.0
3 -11 0.0
3.5 -11 0.0
4 -11 0.0
4.5 -11 0.0
5 -11 0.0
6.9457 -11 0.0
8.8914 -11 0.0
12.3514 -11 0.0
15.8114 -11 0.0
21.9642 -11 0.0
28.1171 -11 0.0
39.0585 -11 0.0
50 -11 0.0
0 -11.5 0.0
1 -11.5 0.0
2 -11.5 0.0
3 -11.5 0.0
4 -11.5 0.0
5 -11.5 0.0
8.8914 -11.5 0.0
15.8114 -11.5 0.0
28.1171 -11.5 0.0
50 -11.5 0.0
0 -12 0.0
0.5 -12 0.0
1 -12 0.0
1.5 -12 0.0
2 -12 0.0
2.5 -12 0.0
3 -12 0.0
3.5 -12 0.0
4 -12 0.0
4.5 -12 0.0
5 -12 0.0
6.9457 -12 0.0
8.8914 -12 0.0
12.3514 -12 0.0
15.8114 -12 0.0
21.9642 -12 0.0
28.1171 -12 0.0
39.0585 -12 0.0
50 -12 0.0
0 -12.5 0.0
1 -12.5 0.0
2 -12.5 0.0
3 -12.5 0.0
4 -12.5 0.0
5 -12.5 0.0
8.8914 -12.5 0.0
15.8114 -12.5 0.0
28.1171 -12.5 0.0
50 -12.5 0.0
0 -13 0.0
0.5 -13 0.0
1 -13 0.0
1.5 -13 0.0
2 -13 0.0
2.5 -13 0.0
3 -13 0.0
3.5 -13 0.0
4 -13 0.0
4.5 -13 0.0
5 -13 0.0
6.9457 -13 0.0
8.8914 -13 0.0
12.3514 -13 0.0
15.8114 -13 0.0
21.9642 -13 0.0
28.1171 -13 0.0
39.0585 -13 0.0
50 -13 0.0
0 -13.5 0.0
1 -13.5 0.0
2 -13.5 0.0
3 -13.5 0.0
4 -13.5 0.0
5 -13.5 0.0
8.8914 -13.5 0.0
15.8114 -13.5 0.0
28.1171 -13.5 0.0
50 -13.5 0.0
0 -14 0.0
0.5 -14 0.0
1 -14 0.0
1.5 -14 0.0
2 -14 0.0
2.5 -14 0.0
3 -14 0.0
3.5 -14 0.0
4 -14 0.0
4.5 -14 0.0
5 -14 0.0
6.9457 -14 0.0
8.8914 -14 0.0
12.3514 -14 0.0
15.8114 -14 0.0
21.9642 -14 0.0
28.1171 -14 0.0
39.0585 -14 0.0
50 -14 0.0
0 -14.5 0.0
1 -14.5 0.0
2 -14.5 0.0
3 -14.5 0.0
4 -14.5 0.0
5 -14.5 0.0
8.8914 -14.5 0.0
15.8114 -14.5 0.0
28.1171 -14.5 0.0
50 -14.5 0.0
0 -15 0.0
0.5 -15 0.0
1 -15 0.0
1.5 -15 0.0
2 -15 0.0
2.5 -15 0.0
3 -15 0.0
3.5 -15 0.0
4 -15 0.0
4.5 -15 0.0
5 -15 0.0
6.9457 -15 0.0
8.8914 -15 0.0
12.3514 -15 0.0
15.8114 -15 0.0
21.9642 -15 0.0
28.1171 -15 0.0
39.0585 -15 0.0
50 -15 0.0
0 -16.5 0.0
1 -16.5 0.0
2 -16.5 0.0
3 -16.5 0.0
4 -16.5 0.0
5 -16.5 0.0
8.8914 -16.5 0.0
15.8114 -16.5 0.0
28.1171 -16.5 0.0
50 -16.5 0.0
0 -18 0.0
0.5 -18 0.0
1 -18 0.0
1.5 -18 0.0
2 -18 0.0
2.5 -18 0.0
3 -18 0.0
3.5 -18 0.0
4 -18 0.0
4.5 -18 0.0
5 -18 0.0
6.9457 -18 0.0
8.8914 -18 0.0
12.3514 -18 0.0
15.8114 -18 0.0
21.9642 -18 0.0
28.1171 -18 0.0
39.0585 -18 0.0
50 -18 0.0
0 -19.5 0.0
1 -19.5 0.0
2 -19.5 0.0
3 -19.5 0.0
4 -19.5 0.0
5 -19.5 0.0
8.8914 -19.5 0.0
15.8114 -19.5 0.0
28.1171 -19.5 0.0
50 -19.5 0.0
0 -21 0.0
0.5 -21 0.0
1 -21 0.0
1.5 -21 0.0
2 -21 0.0
2.5 -21 0.0
3 -21 0.0
3.5 -21 0.0
4 -21 0.0
4.5 -21 0.0
5 -21 0.0
6.9457 -21 0.0
8.8914 -21 0.0
12.3514 -21 0.0
15.8114 -21 0.0
21.9642 -21 0.0
28.1171 -21 0.0
39.0585 -21 0.0
50 -21 0.0
0 -22.5 0.0
1 -22.5 0.0
2 -22.5 0.0
3 -22.5 0.0
4 -22.5 0.0
5 -22.5 0.0
8.8914 -22.5 0.0
15.8114 -22.5 0.0
28.1171 -22.5 0.0
50 -22.5 0.0
0 -24 0.0
0.5 -24 0.0
1 -24 0.0
1.5 -24 0.0
2 -24 0.0
2.5 -24 0.0
3 -24 0.0
3.5 -24 0.0
4 -24 0.0
4.5 -24 0.0
5 -24 0.0
6.9457 -24 0.0
8.8914 -24 0.0
12.3514 -24 0.0
15.8114 -24 0.0
21.9642 -24 0.0
28.1171 -24 0.0
39.0585 -24 0.0
50 -24 0.0
0 -25.5 0.0
1 -25.5 0.0
2 -25.5 0.0
3 -25.5 0.0
4 -25.5 0.0
5 -25.5 0.0
8.8914 -25.5 0.0
15.8114 -25.5 0.0
28.1171 -25.5 0.0
50 -25.5 0.0
0 -27 0.0
0.5 -27 0.0
1 -27 0.0
1.5 -27 0.0
2 -27 0.0
2.5 -27 0.0
3 -27 0.0
3.5 -27 0.0
4 -27 0.0
4.5 -27 0.0
5 -27 0.0
6.9457 -27 0.0
8.8914 -27 0.0
12.3514 -27 0.0
15.8114 -27 0.0
21.9642 -27 0.0
28.1171 -27 0.0
39.0585 -27 0.0
50 -27 0.0
0 -28.5 0.0
1 -28.5 0.0
2 -28.5 0.0
3 -28.5 0.0
4 -28.5 0.0
5 -28.5 0.0
8.8914 -28.5 0.0
15.8114 -28.5 0.0
28.1171 -28.5 0.0
50 -28.5 0.0
0 -30 0.0
0.5 -30 0.0
1 -30 0.0
1.5 -30 0.0
2 -30 0.0
2.5 -30 0.0
3 -30 0.0
3.5 -30 0.0
4 -30 0.0
4.5 -30 0.0
5 -30 0.0
6.9457 -30 0.0
8.8914 -30 0.0
12.3514 -30 0.0
15.8114 -30 0.0
21.9642 -30 0.0
28.1171 -30 0.0
39.0585 -30 0.0
50 -30 0.0
0 -31.5 0.0
1 -31.5 0.0
2 -31.5 0.0
3 -31.5 0.0
4 -31.5 0.0
5 -31.5 0.0
8.8914 -31.5 0.0
15.8114 -31.5 0.0
28.1171 -31.5 0.0
50 -31.5 0.0
0 -33 0.0
0.5 -33 0.0
1 -33 0.0
1.5 -33 0.0
2 -33 0.0
2.5 -33 0.0
3 -33 0.0
3.5 -33 0.0
4 -33 0.0
4.5 -33 0.0
5 -33 0.0
6.9457 -33 0.0
8.8914 -33 0.0
12.3514 -33 0.0
15.8114 -33 0.0
21.9642 -33 0.0
28.1171 -33 0.0
39.0585 -33 0.0
50 -33 0.0
0 -34.5 0.0
1 -34.5 0.0
2 -34.5 0.0
3 -34.5 0.0
4 -34.5 0.0
5 -34.5 0.0
8.8914 -34.5 0.0
15.8114 -34.5 0.0
28.1171 -34.5 0.0
50 -34.5 0.0
0 -36 0.0
0.5 -36 0.0
1 -36 0.0
1.5 -36 0.0
2 -36 0.0
2.5 -36 0.0
3 -36 0.0
3.5 -36 0.0
4 -36 0.0
4.5 -36 0.0
5 -36 0.0
6.9457 -36 0.0
8.8914 -36 0.0
12.3514 -36 0.0
15.8114 -36 0.0
21.9642 -36 0.0
28.1171 -36 0.0
39.0585 -36 0.0
50 -36 0.0
0 -37.5 0.0
1 -37.5 0.0
2 -37.5 0.0
3 -37.5 0.0
4 -37.5 0.0
5 -37.5 0.0
8.8914 -37.5 0.0
15.8114 -37.5 0.0
28.1171 -37.5 0.0
50 -37.5 0.0
0 -39 0.0
0.5 -39 0.0
1 -39 0.0
1.5 -39 0.0
2 -39 0.0
2.5 -39 0.0
3 -39 0.0
3.5 -39 0.0
4 -39 0.0
4.5 -39 0.0
5 -39 0.0
6.9457 -39 0.0
8.8914 -39 0.0
12.3514 -39 0.0
15.8114 -39 0.0
21.9642 -39 0.0
28.1171 -39 0.0
39.0585 -39 0.0
50 -39 0.0
0 -40.5 0.0
1 -40.5 0.0
2 -40.5 0.0
3 -40.5 0.0
4 -40.5 0.0
5 -40.5 0.0
8.8914 -40.5 0.0
15.8114 -40.5 0.0
28.1171 -40.5 0.0
50 -40.5 0.0
0 -42 0.0
0.5 -42 0.0
1 -42 0.0
1.5 -42 0.0
2 -42 0.0
2.5 -42 0.0
3 -42 0.0
3.5 -42 0.0
4 -42 0.0
4.5 -42 0.0
5 -42 0.0
6.9457 -42 0.0
8.8914 -42 0.0
12.3514 -42 0.0
15.8114 -42 0.0
21.9642 -42 0.0
28.1171 -42 0.0
39.0585 -42 0.0
50 -42 0.0
0 -43.5 0.0
1 -43.5 0.0
2 -43.5 0.0
3 -43.5 0.0
4 -43.5 0.0
5 -43.5 0.0
8.8914 -43.5 0.0
15.8114 -43.5 0.0
28.1171 -43.5 0.0
50 -43.5 0.0
0 -45 0.0
0.5 -45 0.0
1 -45 0.0
1.5 -45 0.0
2 -45 0.0
2.5 -45 0.0
3 -45 0.0
3.5 -45 0.0
4 -45 0.0
4.5 -45 0.0
5 -45 0.0
6.9457 -45 0.0
8.8914 -45 0.0
12.3514 -45 0.0
15.8114 -45 0.0
21.9642 -45 0.0
28.1171 -45 0.0
39.0585 -45 0.0
50 -45 0.0
0 -50.5 0.0
1 -50.5 0.0
2 -50.5 0.0
3 -50.5 0.0
4 -50.5 0.0
5 -50.5 0.0
8.8914 -50.5 0.0
15.8114 -50.5 0.0
28.1171 -50.5 0.0
50 -50.5 0.0
0 -56 0.0
0.5 -56 0.0
1 -56 0.0
1.5 -56 0.0
2 -56 0.0
2.5 -56 0.0
3 -56 0.0
3.5 -56 0.0
4 -56 0.0
4.5 -56 0.0
5 -56 0.0
6.9457 -56 0.0
8.8914 -56 0.0
12.3514 -56 0.0
15.8114 -56 0.0
21.9642 -56 0.0
28.1171 -56 0.0
39.0585 -56 0.0
50 -56 0.0
0 -61.5 0.0
1 -61.5 0.0
2 -61.5 0.0
3 -61.5 0.0
4 -61.5 0.0
5 -61.5 0.0
8.8914 -61.5 0.0
15.8114 -61.5 0.0
28.1171 -61.5 0.0
[...]
POINT_DATA 889
SCALARS Displacement_R double 1
LOOKUP_TABLE default
0
-3.07747e-05
-6.1178e-05
-9.08567e-05
-0.000119439
-0.000146776
-0.000172475
-0.000196724
-0.000218315
-0.000235787
-0.000249289
-0.000266058
-0.000257273
-0.00022558
-0.000187762
-0.000138581
-9.48698e-05
-4.49724e-05
0
0
-4.27558e-05
-8.31231e-05
-0.000118583
-0.000145801
-0.000165169
-0.000193689
-0.000148541
-7.8211e-05
0
0
-1.33117e-05
-2.63623e-05
-3.89651e-05
-5.08113e-05
-6.16614e-05
-7.1138e-05
-7.92829e-05
-8.5802e-05
-9.06648e-05
-9.75759e-05
-0.000123694
-0.000132221
-0.000124065
-0.000109754
-8.51893e-05
-6.15976e-05
-2.95541e-05
0
0
-1.1567e-05
-2.18424e-05
-2.96399e-05
-3.46666e-05
-4.12831e-05
-7.34844e-05
-7.09224e-05
-4.47894e-05
0
0
1.05913e-06
2.18398e-06
3.38546e-06
4.76015e-06
6.35776e-06
8.07966e-06
9.73375e-06
1.08428e-05
1.08688e-05
9.61976e-06
-3.48857e-06
-1.62371e-05
-2.72268e-05
-3.23698e-05
-3.30245e-05
-2.80483e-05
-1.44108e-05
0
0
1.54657e-05
3.04123e-05
4.39895e-05
5.44702e-05
5.91755e-05
4.02885e-05
5.86843e-06
-1.13787e-05
0
0
1.46229e-05
2.90409e-05
4.30893e-05
5.65301e-05
6.91787e-05
8.07212e-05
9.08351e-05
9.92059e-05
0.000105609
0.000110037
0.000110486
9.6936e-05
6.79829e-05
4.38786e-05
1.84898e-05
5.21841e-06
5.9406e-07
0
0
4.36657e-05
8.47737e-05
0.00012058
0.000148282
0.000165432
0.000154922
8.14385e-05
2.15034e-05
0
0
3.02915e-05
6.01246e-05
8.9134e-05
0.0001168
0.000142646
0.000166181
0.000186884
0.000204533
0.00021867
0.000229099
0.000235566
0.000214646
0.000164299
0.000118799
6.98625e-05
3.77126e-05
1.55874e-05
0
0
5.92184e-05
0.000114926
0.000163507
0.000201567
0.000226486
0.000223264
0.000131811
4.70416e-05
0
0
2.90739e-05
5.76838e-05
8.54684e-05
0.000111919
0.000136703
0.000159368
0.000179499
0.000196725
0.000211067
0.000222423
0.000240076
0.000229137
0.000186597
0.000144082
9.05268e-05
5.63011e-05
2.41188e-05
0
0
5.57572e-05
0.000108242
0.000154303
0.00019128
0.000217648
0.000232884
0.00015473
6.51042e-05
0
0
2.70246e-05
5.36341e-05
7.94975e-05
0.00010421
0.000127448
0.000148864
0.000168169
0.000185233
0.000199877
0.000212152
0.00023697
0.000234873
0.000203298
0.000164768
0.000110841
7.38772e-05
3.26517e-05
0
0
5.14348e-05
0.000100063
0.00014328
0.000179069
0.000206293
0.00023592
0.000173983
8.24793e-05
0
0
2.48025e-05
4.92592e-05
7.30886e-05
9.59578e-05
0.000117604
0.000137775
0.000156254
0.000172901
0.000187613
0.000200352
0.000230272
0.000235976
0.000215733
0.000182762
0.000130612
9.10833e-05
4.116e-05
0
0
4.71718e-05
9.20386e-05
0.000132509
0.000166976
0.000194457
0.000235686
0.000191069
9.96291e-05
0
0
2.27503e-05
4.52193e-05
6.71789e-05
8.83658e-05
0.000108562
0.00012757
0.00014521
0.000161367
0.000175949
0.000188899
0.000222656
0.000235022
0.000225704
0.000199153
0.000150083
0.000108206
4.96776e-05
0
0
4.34376e-05
8.50184e-05
0.00012306
0.000156247
0.000183712
0.000234465
0.000207074
0.000116804
0
0
2.10356e-05
4.18461e-05
6.22473e-05
8.20273e-05
0.00010101
0.000119035
0.000135952
0.000151661
0.000166079
0.000179145
0.000215977
0.00023404
0.00023489
0.000215008
0.000169615
0.000125462
5.82523e-05
0
0
4.04713e-05
7.94494e-05
0.000115571
0.000147745
0.000175204
0.00023409
0.000223079
0.000134211
0
0
1.97534e-05
3.93254e-05
5.85668e-05
7.73063e-05
9.53999e-05
0.000112714
0.000129123
0.000144538
0.000158885
0.000172104
0.000211674
0.000234713
0.000244858
0.000231413
0.000189633
0.000143048
6.69348e-05
0
0
3.84317e-05
7.56492e-05
0.000110533
0.000142162
0.000169855
0.000236139
0.000240186
0.00015204
0
0
1.89767e-05
3.78046e-05
5.63611e-05
7.45046e-05
9.21145e-05
0.000109079
0.000125289
0.000140667
0.000155143
0.000168659
0.000211016
0.000238554
0.000257105
0.000249479
0.000210599
0.00016115
7.57767e-05
0
0
3.74708e-05
7.39281e-05
0.000108429
0.000140176
0.000168549
0.000242101
0.000259517
0.000170472
0
0
1.87889e-05
3.74512e-05
5.58823e-05
7.39612e-05
9.1582e-05
0.000108649
0.000125069
0.000140765
0.000155675
0.000169736
0.000215285
0.000247063
0.000273114
0.000270343
0.000232998
0.000179939
8.48301e-05
0
0
3.77805e-05
7.4673e-05
0.000109844
0.000142573
0.000172279
0.000253531
0.000282227
0.000189664
0
0
1.93026e-05
3.84907e-05
5.74686e-05
7.61265e-05
9.43659e-05
0.000112097
0.000129239
0.000145722
0.000161466
0.000176433
0.00022595
0.000261882
0.000294408
0.000295174
0.000257338
0.000199555
9.41499e-05
0
0
3.96301e-05
7.84172e-05
0.000115561
0.000150357
0.000182248
0.00027219
0.000309485
0.000209716
0
0
2.06803e-05
4.12464e-05
6.16021e-05
8.16384e-05
0.000101257
0.000120369
0.000138877
0.00015671
0.00017379
0.000190075
0.000244864
0.000284938
0.000322601
0.000325145
0.000284167
0.000220059
0.000103802
0
0
4.34079e-05
8.59244e-05
0.000126706
0.00016501
0.000200217
0.000300488
0.000342489
0.000230606
0
0
2.31564e-05
4.61854e-05
6.89746e-05
9.14078e-05
0.000113368
0.000134763
0.000155475
0.000175441
0.000194586
0.00021284
0.000273997
0.00031922
0.000359308
0.000361465
0.000314134
0.000241339
0.00011388
0
0
4.00632e-05
7.93939e-05
0.000117285
0.00015311
0.000186311
0.000284626
0.000335314
0.000234425
0
0
1.75141e-05
3.49544e-05
5.22538e-05
6.9344e-05
8.6151e-05
0.000102623
0.00011868
0.000134287
0.000149374
0.000163908
0.000214229
0.000254417
0.000296728
0.000309684
0.00028372
0.000226011
0.000109745
0
0
3.07093e-05
6.09693e-05
9.03458e-05
0.000118437
0.000144881
0.000227602
0.000285763
0.000216794
0
0
1.35672e-05
2.70866e-05
4.05169e-05
5.38133e-05
6.69303e-05
7.98307e-05
9.24686e-05
0.000104814
0.000116824
0.000128477
0.000169902
0.000204214
0.000244905
0.000262977
0.000251226
0.000206689
0.000103241
0
0
2.40159e-05
4.77418e-05
7.08949e-05
9.32117e-05
0.000114463
0.000183459
0.000241803
0.00019633
0
0
1.0698e-05
2.1365e-05
3.19738e-05
4.24944e-05
5.28973e-05
6.31577e-05
7.3246e-05
8.3141e-05
9.28059e-05
0.00010223
0.000136192
0.000165218
0.000202314
0.000222
0.00021938
0.000185557
9.51765e-05
0
0
1.90794e-05
3.79637e-05
5.64617e-05
7.43904e-05
9.15869e-05
0.000148955
0.00020366
0.000174923
0
0
8.55026e-06
1.7079e-05
2.55678e-05
3.39957e-05
4.23426e-05
5.05902e-05
5.87197e-05
6.67134e-05
7.455e-05
8.22178e-05
0.00011015
0.000134543
0.000167348
0.000186697
0.000189612
0.000164218
8.6255e-05
0
0
1.53307e-05
3.0525e-05
4.54486e-05
5.99721e-05
7.39769e-05
0.00012164
0.000171012
0.000153878
0
0
6.90078e-06
1.37863e-05
2.06435e-05
2.74574e-05
3.42137e-05
4.08994e-05
4.75004e-05
5.40047e-05
6.03971e-05
6.66681e-05
8.96912e-05
0.000110121
0.000138597
0.000156603
0.000162613
0.000143698
7.70516e-05
0
0
1.24227e-05
2.4747e-05
3.6876e-05
4.87157e-05
6.01782e-05
9.97689e-05
0.00014329
0.000133997
0
0
5.60983e-06
1.12085e-05
1.67866e-05
2.23329e-05
2.78374e-05
3.329e-05
3.86807e-05
4.40002e-05
4.92381e-05
5.43866e-05
7.34001e-05
9.04735e-05
0.000114897
0.00013111
0.00013862
0.000124603
6.79995e-05
0
0
1.0128e-05
2.01834e-05
3.00943e-05
3.97911e-05
4.92072e-05
8.20926e-05
0.000119864
0.000115728
0
0
4.58423e-06
9.16013e-06
1.37207e-05
1.82575e-05
2.27631e-05
2.72298e-05
3.16502e-05
3.6017e-05
4.03233e-05
4.4562e-05
6.02866e-05
7.45336e-05
9.53113e-05
0.0001096
0.000117598
0.000107242
5.93995e-05
0
0
8.29358e-06
1.65325e-05
2.46625e-05
3.26307e-05
4.03859e-05
6.77007e-05
0.000100132
9.92738e-05
0
0
3.75997e-06
7.51358e-06
1.12555e-05
1.49794e-05
1.86797e-05
2.23504e-05
2.59859e-05
2.95807e-05
3.31292e-05
3.66263e-05
4.96405e-05
6.1517e-05
7.90927e-05
9.15027e-05
9.93682e-05
9.17298e-05
5.14417e-05
0
0
6.81194e-06
1.35818e-05
2.02679e-05
2.68296e-05
3.32283e-05
5.59128e-05
8.35509e-05
8.46726e-05
0
0
3.0918e-06
6.17871e-06
9.25671e-06
1.23206e-05
1.53662e-05
1.83886e-05
2.13835e-05
2.43463e-05
2.72737e-05
3.01604e-05
4.09435e-05
5.08245e-05
6.56438e-05
7.63126e-05
8.36808e-05
7.80438e-05
4.42312e-05
0
0
5.60715e-06
1.11822e-05
1.66925e-05
2.21063e-05
2.73903e-05
4.62275e-05
6.96552e-05
7.18426e-05
0
0
2.54606e-06
5.08839e-06
7.62335e-06
1.01478e-05
1.26577e-05
1.51504e-05
1.76216e-05
2.0069e-05
2.24884e-05
2.48777e-05
3.37984e-05
4.20415e-05
5.44357e-05
6.36114e-05
7.02818e-05
6.60491e-05
3.78189e-05
0
0
3.5932e-06
7.16744e-06
1.07036e-05
1.41831e-05
1.75877e-05
2.98148e-05
4.54894e-05
4.84422e-05
0
0
1.26211e-06
2.52267e-06
3.78005e-06
5.03296e-06
6.27935e-06
7.51838e-06
8.74767e-06
9.96673e-06
1.11728e-05
1.23659e-05
1.68428e-05
2.10244e-05
2.74342e-05
3.23881e-05
3.64291e-05
3.51428e-05
2.04203e-05
0
0
1.79256e-06
3.57645e-06
5.34316e-06
7.08424e-06
8.79157e-06
1.49657e-05
2.31037e-05
2.53421e-05
0
0
6.33389e-07
1.26601e-06
1.89718e-06
2.52619e-06
3.15219e-06
3.77462e-06
4.39254e-06
5.00551e-06
5.61236e-06
6.21293e-06
8.47235e-06
1.05878e-05
1.3867e-05
1.64237e-05
1.87271e-05
1.82503e-05
1.06983e-05
0
0
9.05517e-07
1.80688e-06
2.69996e-06
3.58067e-06
4.44511e-06
7.5833e-06
1.17915e-05
1.31312e-05
0
0
3.23473e-07
6.46581e-07
9.68981e-07
1.29033e-06
1.61022e-06
1.92838e-06
2.24434e-06
2.55791e-06
2.86848e-06
3.17598e-06
4.33511e-06
5.42435e-06
7.11073e-06
8.44077e-06
9.67084e-06
9.47989e-06
5.58589e-06
0
0
4.60895e-07
9.19742e-07
1.3745e-06
1.82314e-06
2.26376e-06
3.86519e-06
6.03278e-06
6.77125e-06
0
0
1.55922e-07
3.11656e-07
4.67065e-07
6.21944e-07
7.76154e-07
9.29493e-07
1.08182e-06
1.23295e-06
1.38266e-06
1.53083e-06
2.09159e-06
2.61691e-06
3.44009e-06
4.08626e-06
4.71189e-06
4.61203e-06
2.74105e-06
0
0
1.71666e-07
3.42579e-07
5.12007e-07
6.79235e-07
8.43653e-07
1.4406e-06
2.25499e-06
2.56213e-06
0
0
0
0
0
0
0
0
0
0
0
0
0
0
0
0
0
0
0
0
SCALARS Displacement_Z double 1
LOOKUP_TABLE default
0.00331204
0.00330718
0.00329244
0.00326811
0.00323423
0.00319092
0.0031383
0.00307665
0.00300417
0.0029203
0.00281429
0.00247538
0.00219816
0.00178814
0.00147075
0.001066
0.000799825
0.000534595
0.000453957
0.00332473
0.00330467
0.00324494
0.00314692
0.0030095
0.00282512
0.00220282
0.00147139
0.00079932
0.000452986
0.00332863
0.00332347
0.00330813
0.00328267
0.00324726
0.00320199
0.00314697
0.00308243
0.00300836
0.00292327
0.00283175
0.00249431
0.00220687
0.00179204
0.00147213
0.00106562
0.000798957
0.000533208
0.000452184
0.00332522
0.00330444
0.00324267
0.00314133
0.00300205
0.00283325
0.0022096
0.00147273
0.000798706
0.000451578
0.00331551
0.00331025
0.00329457
0.00326858
0.00323244
0.00318637
0.00313077
0.00306622
0.00299344
0.00291383
0.00283013
0.00250248
0.00221122
0.00179476
0.00147343
0.00106589
0.000798591
0.000532402
0.00045114
0.00330025
0.00327935
0.0032174
0.00311655
0.00298177
0.00282366
0.00221153
0.00147394
0.000798563
0.000450871
0.00327931
0.00327411
0.00325865
0.00323302
0.0031975
0.00315241
0.00309841
0.00303623
0.00296703
0.00289208
0.00281305
0.00249817
0.00221059
0.00179589
0.00147457
0.00106679
0.000798664
0.000532193
0.000450769
0.00325229
0.00323208
0.00317232
0.00307575
0.00294836
0.00279928
0.00220825
0.00147499
0.000798862
0.000450847
0.00321781
0.00321293
0.00319826
0.00317402
0.00314042
0.00309799
0.00304726
0.0029891
0.00292453
0.00285483
0.00278157
0.00248262
0.00220503
0.00179579
0.00147552
0.00106831
0.000799187
0.00053256
0.00045109
0.00314415
0.00312593
0.0030722
0.00298606
0.00287265
0.00274157
0.00219481
0.00147542
0.000799631
0.00045164
0.00307326
0.003069
0.00305636
0.00303546
0.00300665
0.00297029
0.00292703
0.00287751
0.00282271
0.00276345
0.00270121
0.00243801
0.00218339
0.00179102
0.00147507
0.00107065
0.000800096
0.000533704
0.000452358
0.0030055
0.00298988
0.00294394
0.00287044
0.00277417
0.00266166
0.00217122
0.00147449
0.000800523
0.000453152
0.00294105
0.00293742
0.00292662
0.00290878
0.00288419
0.0028532
0.00281631
0.00277414
0.00272732
0.00267648
0.00262254
0.00239027
0.00215797
0.0017832
0.00147354
0.00107236
0.000800978
0.000535327
0.000454108
0.00287992
0.00286659
0.00282736
0.00276461
0.00268206
0.00258448
0.002144
0.00147225
0.000801425
0.000455178
0.00282207
0.00281896
0.00280972
0.00279446
0.00277341
0.00274686
0.00271523
0.00267893
0.00263849
0.00259437
0.00254719
0.00234124
0.00212912
0.00177243
0.0014705
0.0010733
0.000801902
0.00053738
0.000456406
0.00276729
0.00275585
0.00272216
0.00266808
0.0025965
0.00251105
0.0021137
0.00146833
0.000802374
0.000457758
0.00271547
0.00271279
0.00270482
0.00269165
0.00267347
0.00265049
0.00262304
0.00259144
0.00255611
0.0025174
0.00247578
0.0022919
0.00209754
0.00175883
0.00146567
0.00107334
0.000802877
0.000539853
0.000459268
0.00266633
0.00265641
0.00262713
0.00257997
0.00251718
0.00244158
0.00208099
0.00146255
0.000803377
0.000460905
0.00261968
0.00261735
0.00261039
0.00259888
0.00258297
0.00256284
0.00253872
0.00251089
0.00247965
0.0024453
0.00240823
0.00224273
0.0020638
0.00174256
0.0014589
0.00107244
0.00080391
0.000542744
0.000462702
0.00257525
0.00256653
0.00254076
0.00249911
0.00244336
0.00237577
0.0020463
0.00145479
0.000804443
0.000464626
0.00253279
0.00253073
0.00252458
0.00251439
0.00250028
0.00248241
0.00246095
0.00243613
0.00240819
0.00237739
0.00234402
0.0021938
0.00202824
0.00172375
0.00145015
0.00107058
0.000805013
0.000546062
0.000466712
0.00249203
0.00248426
0.00246129
0.00242404
0.00237397
0.00231292
0.00200987
0.00144506
0.000805589
0.000468928
0.00245269
0.00245085
0.00244533
0.0024362
0.00242354
0.00240747
0.00238816
0.00236577
0.00234052
0.00231261
0.00228229
0.00214487
0.00199094
0.00170248
0.00143945
0.00106778
0.000806208
0.000549821
0.000471306
0.00241448
0.00240748
0.00238675
0.00235307
0.00230763
0.002252
0.00197167
0.00143341
0.000806842
0.000473817
0.00237708
0.00237541
0.00237041
0.00236213
0.00235065
0.00233607
0.00231851
0.00229813
0.00227509
0.00224959
0.00222185
0.00209537
0.00195177
0.00167876
0.00142689
0.00106411
0.00080753
0.000554042
0.000476493
0.00234016
0.0023338
0.00231493
0.0022842
0.00224266
0.00219163
0.00193144
0.00141997
0.000808243
0.000479306
0.00230336
0.00230183
0.00229728
0.00228972
0.00227924
0.00226591
0.00224985
0.00223118
0.00221007
0.00218664
0.00216113
0.00204441
0.00191039
0.00165253
0.00141263
0.0010597
0.000809026
0.00055875
0.000482286
0.00226628
0.00226047
0.00224323
0.00221511
0.002177
0.00213006
0.00188877
0.00140492
0.000809849
0.000485414
0.00222848
0.00222709
0.00222293
0.00221604
0.00220646
0.00219428
0.0021796
0.00216251
0.00214315
0.00212166
0.00209813
0.00199074
0.0018663
0.00162369
0.00139686
0.00105474
0.00081076
0.00056397
0.00048871
0.00218947
0.00218419
0.0021685
0.00214289
0.00210812
0.00206516
0.00184308
0.00138844
0.000811733
0.000492178
0.00214868
0.00214745
0.00214368
0.00213747
0.00212881
0.00211781
0.00210451
0.00208905
0.00207149
0.00205196
0.00203062
0.00193262
0.00181884
0.0015922
0.00137977
0.0010495
0.000812817
0.00056972
0.000495814
0.00198376
0.00197971
0.00196763
0.00194782
0.00192079
0.00188713
0.00171025
0.00132808
0.000803523
0.000499698
0.00183919
0.00183832
0.00183583
0.00183164
0.00182587
0.00181846
0.00180952
0.00179905
0.00178714
0.00177385
0.00175926
0.00169136
0.00160966
0.00144316
0.00127605
0.0010017
0.000793146
0.000572137
0.000503146
0.00171124
0.00170845
0.00170017
0.00168654
0.00166786
0.00164448
0.0015177
0.00122604
0.000782169
0.000506021
0.00159739
0.0015968
0.00159506
0.00159214
0.0015881
0.00158292
0.00157665
0.00156929
0.0015609
0.00155153
0.00154122
0.00149245
0.00143277
0.00130814
0.00117675
0.000950613
0.00077021
0.000571538
0.000508312
0.00149541
0.00149343
0.00148754
0.00147784
0.00146447
0.00144763
0.00135462
0.00112971
0.000757733
0.000509952
0.0014036
0.00140317
0.00140191
0.00139981
0.00139688
0.00139313
0.00138859
0.00138325
0.00137714
0.0013703
0.00136274
0.00132688
0.00128241
0.00118758
0.00108397
0.000898509
0.00074445
0.000567874
0.000510889
0.00132047
0.00131902
0.0013147
0.00130757
0.00129772
0.00128528
0.00121562
0.00104048
0.000730798
0.00051115
0.0012449
0.00124458
0.00124365
0.00124209
0.00123991
0.00123713
0.00123375
0.00122977
0.00122522
0.00122011
0.00121446
0.00118751
0.00115376
0.00108062
0.000998529
0.000846894
0.000716527
0.000561231
0.000510634
0.00117588
0.00117479
0.00117156
0.0011662
0.00115879
0.0011494
0.00109629
0.000958702
0.000702032
0.000509447
0.00111262
0.00111239
0.00111168
0.0011105
0.00110885
0.00110674
0.00110418
0.00110116
0.0010977
0.00109381
0.0010895
0.00106889
0.00104289
0.000985839
0.00092047
0.000796687
0.000687087
0.000551798
0.000507452
0.00105442
0.00105359
0.00105112
0.00104702
0.00104134
0.00103414
0.000993065
0.000884157
0.000672043
0.000504814
0.00100069
0.00100051
0.000999962
0.000999053
0.000997787
0.000996161
0.000994185
0.000991857
0.000989188
0.000986182
0.000982848
0.000966872
0.000946584
0.000901671
0.000849375
0.000748389
0.000656686
0.000539816
0.000501375
0.000950917
0.000950276
0.000948359
0.000945181
0.000940773
0.00093517
0.000903039
0.000816285
0.000641324
0.000497336
0.000904678
0.000904535
0.00090411
0.000903402
0.000902415
0.000901147
0.000899604
0.000897787
0.000895702
0.000893352
0.000890743
0.000878217
0.000862238
0.00082661
0.000784605
0.000702216
0.000625758
0.000525547
0.00049253
0.000861578
0.000861076
0.000859573
0.000857081
0.000853621
0.000849218
0.000823851
0.00075439
0.00061025
0.000487175
0.000821298
0.000821185
0.000820851
0.000820294
0.000819516
0.000818517
0.000817301
0.000815869
0.000814225
0.000812371
0.000810312
0.000800403
0.000787719
0.000759288
0.000725439
0.000658196
0.000594616
0.000509259
0.000481107
0.000783537
0.00078314
0.000781951
0.00077998
0.000777239
0.000773749
0.000753579
0.000697743
0.000579079
0.000474546
0.000748045
0.000747957
0.000747691
0.000747249
0.000746632
0.00074584
0.000744874
0.000743737
0.00074243
0.000740955
0.000739313
0.000731428
0.000721294
0.000698494
0.000671161
0.000616247
0.000563471
0.000491204
0.000467337
0.000714591
0.000714274
0.000713328
0.000711758
0.000709577
0.000706796
0.000690671
0.000645633
0.000547978
0.000459695
0.000682978
0.000682903
0.000682692
0.000682337
0.000681846
0.000681211
0.000680442
0.000679532
0.00067849
0.000677314
0.000676012
0.000669673
0.000661579
0.00064318
0.000621071
0.000576235
0.00053245
0.000471618
0.000451474
0.000579882
0.000579696
0.00057913
0.000578191
0.000576883
0.000575211
0.0005655
0.000538011
0.000476708
0.000418339
0.000492449
0.000492414
0.00049232
0.000492159
0.000491938
0.000491651
0.000491305
0.000490894
0.000490425
0.000489894
0.000489306
0.000486423
0.000482744
0.000474289
0.000463995
0.00044273
0.000421095
0.000389851
0.000379456
0.000415689
0.000415603
0.000415346
0.000414918
0.000414322
0.000413559
0.000409112
0.000396341
0.000367012
0.00033782
0.00034646
0.000346444
0.000346401
0.000346329
0.000346228
0.000346098
0.000345941
0.000345754
0.000345541
0.000345301
0.000345034
0.000343722
0.000342043
0.000338183
0.00033348
0.000323511
0.000313225
0.000298026
0.000292972
0.000282393
0.000282356
0.000282241
0.000282051
0.000281787
0.000281447
0.000279471
0.000273735
0.000260356
0.000246705
0.000221953
0.000221946
0.000221928
0.000221897
0.000221855
0.0002218
0.000221733
0.000221654
0.000221564
0.000221463
0.00022135
0.000220789
0.000220072
0.000218439
0.000216433
0.00021214
0.000207685
0.000200968
0.000198777
0.000163999
0.000163984
0.00016394
0.000163867
0.000163765
0.000163634
0.000162877
0.000160671
0.000155508
0.000150141
0.000107883
0.000107881
0.000107875
0.000107865
0.000107852
0.000107835
0.000107814
0.00010779
0.000107762
0.000107731
0.000107697
0.000107519
0.000107295
0.00010679
0.000106171
0.000104828
0.000103449
0.000101265
0.000100634
5.31964e-05
5.31938e-05
5.31857e-05
5.3172e-05
5.31528e-05
5.31275e-05
5.29883e-05
5.25627e-05
5.16713e-05
5.06812e-05
-0
-0
-0
-0
-0
-0
-0
-0
-0
-0
-0
-0
-0
-0
-0
-0
-0
-0
-0
SCALARS Stress_R double 1
LOOKUP_TABLE default
37.007
36.6357
36.3522
35.5294
34.8067
33.4862
32.5057
31.2393
28.8342
24.9616
15.3887
4.77779
0.226997
-1.242
-2.10265
-1.83553
-1.57772
-1.34854
-1.31188
27.8394
27.3252
25.9303
23.3928
19.0086
12.6765
1.31906
-1.42311
-1.2432
-1.0885
20.1135
19.8573
19.7042
19.1398
18.6114
17.6033
16.6185
15.2996
12.6288
12.2193
11.0465
5.28186
1.61663
0.120331
-0.741211
-0.864492
-0.909575
-0.875835
-0.873402
12.2113
11.9171
11.1602
9.74734
7.8566
8.07237
2.21338
-0.104543
-0.606792
-0.672029
5.03321
4.96783
4.93424
4.80224
4.59431
4.40131
4.07008
3.96846
3.73213
3.96676
4.61066
2.8746
2.47685
1.17821
0.502688
0.0692512
-0.30379
-0.390794
-0.465058
-2.17494
-2.09081
-1.8808
-1.5181