# vtk DataFile Version 2.0
./vtk
ASCII

DATASET UNSTRUCTURED_GRID
POINTS 821 double
0 0 0.0
0.0556 0 0.0
0.1111 0 0.0
0.1667 0 0.0
0.2222 0 0.0
0.2778 0 0.0
0.3333 0 0.0
0.3889 0 0.0
0.4444 0 0.0
0.5 0 0.0
0.5556 0 0.0
0.6111 0 0.0
0.6667 0 0.0
0.7222 0 0.0
0.7778 0 0.0
0.8333 0 0.0
0.8889 0 0.0
0.9444 0 0.0
1 0 0.0
1.2924 0 0.0
1.5849 0 0.0
2.0484 0 0.0
2.5119 0 0.0
3.2465 0 0.0
3.9811 0 0.0
5.1453 0 0.0
6.3096 0 0.0
8.1548 0 0.0
10 0 0.0
0 -0.2222 0.0
0.1111 -0.2222 0.0
0.2222 -0.2222 0.0
0.3333 -0.2222 0.0
0.4444 -0.2222 0.0
0.5556 -0.2222 0.0
0.6667 -0.2222 0.0
0.7778 -0.2222 0.0
0.8889 -0.2222 0.0
1 -0.2222 0.0
1.5849 -0.2222 0.0
2.5119 -0.2222 0.0
3.9811 -0.2222 0.0
6.3096 -0.2222 0.0
10 -0.2222 0.0
0 -0.4444 0.0
0.0556 -0.4444 0.0
0.1111 -0.4444 0.0
0.1667 -0.4444 0.0
0.2222 -0.4444 0.0
0.2778 -0.4444 0.0
0.3333 -0.4444 0.0
0.3889 -0.4444 0.0
0.4444 -0.4444 0.0
0.5 -0.4444 0.0
0.5556 -0.4444 0.0
0.6111 -0.4444 0.0
0.6667 -0.4444 0.0
0.7222 -0.4444 0.0
0.7778 -0.4444 0.0
0.8333 -0.4444 0.0
0.8889 -0.4444 0.0
0.9444 -0.4444 0.0
1 -0.4444 0.0
1.2924 -0.4444 0.0
1.5849 -0.4444 0.0
2.0484 -0.4444 0.0
2.5119 -0.4444 0.0
3.2465 -0.4444 0.0
3.9811 -0.4444 0.0
5.1453 -0.4444 0.0
6.3096 -0.4444 0.0
8.1548 -0.4444 0.0
10 -0.4444 0.0
0 -0.6667 0.0
0.1111 -0.6667 0.0
0.2222 -0.6667 0.0
0.3333 -0.6667 0.0
0.4444 -0.6667 0.0
0.5556 -0.6667 0.0
0.6667 -0.6667 0.0
0.7778 -0.6667 0.0
0.8889 -0.6667 0.0
1 -0.6667 0.0
1.5849 -0.6667 0.0
2.5119 -0.6667 0.0
3.9811 -0.6667 0.0
6.3096 -0.6667 0.0
10 -0.6667 0.0
0 -0.8889 0.0
0.0556 -0.8889 0.0
0.1111 -0.8889 0.0
0.1667 -0.8889 0.0
0.2222 -0.8889 0.0
0.2778 -0.8889 0.0
0.3333 -0.8889 0.0
0.3889 -0.8889 0.0
0.4444 -0.8889 0.0
0.5 -0.8889 0.0
0.5556 -0.8889 0.0
0.6111 -0.8889 0.0
0.6667 -0.8889 0.0
0.7222 -0.8889 0.0
0.7778 -0.8889 0.0
0.8333 -0.8889 0.0
0.8889 -0.8889 0.0
0.9444 -0.8889 0.0
1 -0.8889 0.0
1.2924 -0.8889 0.0
1.5849 -0.8889 0.0
2.0484 -0.8889 0.0
2.5119 -0.8889 0.0
3.2465 -0.8889 0.0
3.9811 -0.8889 0.0
5.1453 -0.8889 0.0
6.3096 -0.8889 0.0
8.1548 -0.8889 0.0
10 -0.8889 0.0
0 -1.1111 0.0
0.1111 -1.1111 0.0
0.2222 -1.1111 0.0
0.3333 -1.1111 0.0
0.4444 -1.1111 0.0
0.5556 -1.1111 0.0
0.6667 -1.1111 0.0
0.7778 -1.1111 0.0
0.8889 -1.1111 0.0
1 -1.1111 0.0
1.5849 -1.1111 0.0
2.5119 -1.1111 0.0
3.9811 -1.1111 0.0
6.3096 -1.1111 0.0
10 -1.1111 0.0
0 -1.3333 0.0
0.0556 -1.3333 0.0
0.1111 -1.3333 0.0
0.1667 -1.3333 0.0
0.2222 -1.3333 0.0
0.2778 -1.3333 0.0
0.3333 -1.3333 0.0
0.3889 -1.3333 0.0
0.4444 -1.3333 0.0
0.5 -1.3333 0.0
0.5556 -1.3333 0.0
0.6111 -1.3333 0.0
0.6667 -1.3333 0.0
0.7222 -1.3333 0.0
0.7778 -1.3333 0.0
0.8333 -1.3333 0.0
0.8889 -1.3333 0.0
0.9444 -1.3333 0.0
1 -1.3333 0.0
1.2924 -1.3333 0.0
1.5849 -1.3333 0.0
2.0484 -1.3333 0.0
2.5119 -1.3333 0.0
3.2465 -1.3333 0.0
3.9811 -1.3333 0.0
5.1453 -1.3333 0.0
6.3096 -1.3333 0.0
8.1548 -1.3333 0.0
10 -1.3333 0.0
0 -1.5556 0.0
0.1111 -1.5556 0.0
0.2222 -1.5556 0.0
0.3333 -1.5556 0.0
0.4444 -1.5556 0.0
0.5556 -1.5556 0.0
0.6667 -1.5556 0.0
0.7778 -1.5556 0.0
0.8889 -1.5556 0.0
1 -1.5556 0.0
1.5849 -1.5556 0.0
2.5119 -1.5556 0.0
3.9811 -1.5556 0.0
6.3096 -1.5556 0.0
10 -1.5556 0.0
0 -1.7778 0.0
0.0556 -1.7778 0.0
0.1111 -1.7778 0.0
0.1667 -1.7778 0.0
0.2222 -1.7778 0.0
0.2778 -1.7778 0.0
0.3333 -1.7778 0.0
0.3889 -1.7778 0.0
0.4444 -1.7778 0.0
0.5 -1.7778 0.0
0.5556 -1.7778 0.0
0.6111 -1.7778 0.0
0.6667 -1.7778 0.0
0.7222 -1.7778 0.0
0.7778 -1.7778 0.0
0.8333 -1.7778 0.0
0.8889 -1.7778 0.0
0.9444 -1.7778 0.0
1 -1.7778 0.0
1.2924 -1.7778 0.0
1.5849 -1.7778 0.0
2.0484 -1.7778 0.0
2.5119 -1.7778 0.0
3.2465 -1.7778 0.0
3.9811 -1.7778 0.0
5.1453 -1.7778 0.0
6.3096 -1.7778 0.0
8.1548 -1.7778 0.0
10 -1.7778 0.0
0 -2 0.0
0.1111 -2 0.0
0.2222 -2 0.0
0.3333 -2 0.0
0.4444 -2 0.0
0.5556 -2 0.0
0.6667 -2 0.0
0.7778 -2 0.0
0.8889 -2 0.0
1 -2 0.0
1.5849 -2 0.0
2.5119 -2 0.0
3.9811 -2 0.0
6.3096 -2 0.0
10 -2 0.0
0 -2.2222 0.0
0.0556 -2.2222 0.0
0.1111 -2.2222 0.0
0.1667 -2.2222 0.0
0.2222 -2.2222 0.0
0.2778 -2.2222 0.0
0.3333 -2.2222 0.0
0.3889 -2.2222 0.0
0.4444 -2.2222 0.0
0.5 -2.2222 0.0
0.5556 -2.2222 0.0
0.6111 -2.2222 0.0
0.6667 -2.2222 0.0
0.7222 -2.2222 0.0
0.7778 -2.2222 0.0
0.8333 -2.2222 0.0
0.8889 -2.2222 0.0
0.9444 -2.2222 0.0
1 -2.2222 0.0
1.2924 -2.2222 0.0
1.5849 -2.2222 0.0
2.0484 -2.2222 0.0
2.5119 -2.2222 0.0
3.2465 -2.2222 0.0
3.9811 -2.2222 0.0
5.1453 -2.2222 0.0
6.3096 -2.2222 0.0
8.1548 -2.2222 0.0
10 -2.2222 0.0
0 -2.4444 0.0
0.1111 -2.4444 0.0
0.2222 -2.4444 0.0
0.3333 -2.4444 0.0
0.4444 -2.4444 0.0
0.5556 -2.4444 0.0
0.6667 -2.4444 0.0
0.7778 -2.4444 0.0
0.8889 -2.4444 0.0
1 -2.4444 0.0
1.5849 -2.4444 0.0
2.5119 -2.4444 0.0
3.9811 -2.4444 0.0
6.3096 -2.4444 0.0
10 -2.4444 0.0
0 -2.6667 0.0
0.0556 -2.6667 0.0
0.1111 -2.6667 0.0
0.1667 -2.6667 0.0
0.2222 -2.6667 0.0
0.2778 -2.6667 0.0
0.3333 -2.6667 0.0
0.3889 -2.6667 0.0
0.4444 -2.6667 0.0
0.5 -2.6667 0.0
0.5556 -2.6667 0.0
0.6111 -2.6667 0.0
0.6667 -2.6667 0.0
0.7222 -2.6667 0.0
0.7778 -2.6667 0.0
0.8333 -2.6667 0.0
0.8889 -2.6667 0.0
0.9444 -2.6667 0.0
1 -2.6667 0.0
1.2924 -2.6667 0.0
1.5849 -2.6667 0.0
2.0484 -2.6667 0.0
2.5119 -2.6667 0.0
3.2465 -2.6667 0.0
3.9811 -2.6667 0.0
5.1453 -2.6667 0.0
6.3096 -2.6667 0.0
8.1548 -2.6667 0.0
10 -2.6667 0.0
0 -2.8889 0.0
0.1111 -2.8889 0.0
0.2222 -2.8889 0.0
0.3333 -2.8889 0.0
0.4444 -2.8889 0.0
0.5556 -2.8889 0.0
0.6667 -2.8889 0.0
0.7778 -2.8889 0.0
0.8889 -2.8889 0.0
1 -2.8889 0.0
1.5849 -2.8889 0.0
2.5119 -2.8889 0.0
3.9811 -2.8889 0.0
6.3096 -2.8889 0.0
10 -2.8889 0.0
0 -3.1111 0.0
0.0556 -3.1111 0.0
0.1111 -3.1111 0.0
0.1667 -3.1111 0.0
0.2222 -3.1111 0.0
0.2778 -3.1111 0.0
0.3333 -3.1111 0.0
0.3889 -3.1111 0.0
0.4444 -3.1111 0.0
0.5 -3.1111 0.0
0.5556 -3.1111 0.0
0.6111 -3.1111 0.0
0.6667 -3.1111 0.0
0.7222 -3.1111 0.0
0.7778 -3.1111 0.0
0.8333 -3.1111 0.0
0.8889 -3.1111 0.0
0.9444 -3.1111 0.0
1 -3.1111 0.0
1.2924 -3.1111 0.0
1.5849 -3.1111 0.0
2.0484 -3.1111 0.0
2.5119 -3.1111 0.0
3.2465 -3.1111 0.0
3.9811 -3.1111 0.0
5.1453 -3.1111 0.0
6.3096 -3.1111 0.0
8.1548 -3.1111 0.0
10 -3.1111 0.0
0 -3.3333 0.0
0.1111 -3.3333 0.0
0.2222 -3.3333 0.0
0.3333 -3.3333 0.0
0.4444 -3.3333 0.0
0.5556 -3.3333 0.0
0.6667 -3.3333 0.0
0.7778 -3.3333 0.0
0.8889 -3.3333 0.0
1 -3.3333 0.0
1.5849 -3.3333 0.0
2.5119 -3.3333 0.0
3.9811 -3.3333 0.0
6.3096 -3.3333 0.0
10 -3.3333 0.0
0 -3.5556 0.0
0.0556 -3.5556 0.0
0.1111 -3.5556 0.0
0.1667 -3.5556 0.0
0.2222 -3.5556 0.0
0.2778 -3.5556 0.0
0.3333 -3.5556 0.0
0.3889 -3.5556 0.0
0.4444 -3.5556 0.0
0.5 -3.5556 0.0
0.5556 -3.5556 0.0
0.6111 -3.5556 0.0
0.6667 -3.5556 0.0
0.7222 -3.5556 0.0
0.7778 -3.5556 0.0
0.8333 -3.5556 0.0
0.8889 -3.5556 0.0
0.9444 -3.5556 0.0
1 -3.5556 0.0
1.2924 -3.5556 0.0
1.5849 -3.5556 0.0
2.0484 -3.5556 0.0
2.5119 -3.5556 0.0
3.2465 -3.5556 0.0
3.9811 -3.5556 0.0
5.1453 -3.5556 0.0
6.3096 -3.5556 0.0
8.1548 -3.5556 0.0
10 -3.5556 0.0
0 -3.7778 0.0
0.1111 -3.7778 0.0
0.2222 -3.7778 0.0
0.3333 -3.7778 0.0
0.4444 -3.7778 0.0
0.5556 -3.7778 0.0
0.6667 -3.7778 0.0
0.7778 -3.7778 0.0
0.8889 -3.7778 0.0
1 -3.7778 0.0
1.5849 -3.7778 0.0
2.5119 -3.7778 0.0
3.9811 -3.7778 0.0
6.3096 -3.7778 0.0
10 -3.7778 0.0
0 -4 0.0
0.0556 -4 0.0
0.1111 -4 0.0
0.1667 -4 0.0
0.2222 -4 0.0
0.2778 -4 0.0
0.3333 -4 0.0
0.3889 -4 0.0
0.4444 -4 0.0
0.5 -4 0.0
0.5556 -4 0.0
0.6111 -4 0.0
0.6667 -4 0.0
0.7222 -4 0.0
0.7778 -4 0.0
0.8333 -4 0.0
0.8889 -4 0.0
0.9444 -4 0.0
1 -4 0.0
1.2924 -4 0.0
1.5849 -4 0.0
2.0484 -4 0.0
2.5119 -4 0.0
3.2465 -4 0.0
3.9811 -4 0.0
5.1453 -4 0.0
6.3096 -4 0.0
8.1548 -4 0.0
10 -4 0.0
0 -4.3333 0.0
0.1111 -4.3333 0.0
0.2222 -4.3333 0.0
0.3333 -4.3333 0.0
0.4444 -4.3333 0.0
0.5556 -4.3333 0.0
0.6667 -4.3333 0.0
0.7778 -4.3333 0.0
0.8889 -4.3333 0.0
1 -4.3333 0.0
1.5849 -4.3333 0.0
2.5119 -4.3333 0.0
3.9811 -4.3333 0.0
6.3096 -4.3333 0.0
10 -4.3333 0.0
0 -4.6667 0.0
0.0556 -4.6667 0.0
0.1111 -4.6667 0.0
0.1667 -4.6667 0.0
0.2222 -4.6667 0.0
0.2778 -4.6667 0.0
0.3333 -4.6667 0.0
0.3889 -4.6667 0.0
0.4444 -4.6667 0.0
0.5 -4.6667 0.0
0.5556 -4.6667 0.0
0.6111 -4.6667 0.0
0.6667 -4.6667 0.0
0.7222 -4.6667 0.0
0.7778 -4.6667 0.0
0.8333 -4.6667 0.0
0.8889 -4.6667 0.0
0.9444 -4.6667 0.0
1 -4.6667 0.0
1.2924 -4.6667 0.0
1.5849 -4.6667 0.0
2.0484 -4.6667 0.0
2.5119 -4.6667 0.0
3.2465 -4.6667 0.0
3.9811 -4.6667 0.0
5.1453 -4.6667 0.0
6.3096 -4.6667 0.0
8.1548 -4.6667 0.0
10 -4.6667 0.0
0 -5 0.0
0.1111 -5 0.0
0.2222 -5 0.0
0.3333 -5 0.0
0.4444 -5 0.0
0.5556 -5 0.0
0.6667 -5 0.0
0.7778 -5 0.0
0.8889 -5 0.0
1 -5 0.0
1.5849 -5 0.0
2.5119 -5 0.0
3.9811 -5 0.0
6.3096 -5 0.0
10 -5 0.0
0 -5.3333 0.0
0.0556 -5.3333 0.0
0.1111 -5.3333 0.0
0.1667 -5.3333 0.0
0.2222 -5.3333 0.0
0.2778 -5.3333 0.0
0.3333 -5.3333 0.0
0.3889 -5.3333 0.0
0.4444 -5.3333 0.0
0.5 -5.3333 0.0
0.5556 -5.3333 0.0
0.6111 -5.3333 0.0
0.6667 -5.3333 0.0
0.7222 -5.3333 0.0
0.7778 -5.3333 0.0
0.8333 -5.3333 0.0
0.8889 -5.3333 0.0
0.9444 -5.3333 0.0
1 -5.3333 0.0
1.2924 -5.3333 0.0
1.5849 -5.3333 0.0
2.0484 -5.3333 0.0
2.5119 -5.3333 0.0
3.2465 -5.3333 0.0
3.9811 -5.3333 0.0
5.1453 -5.3333 0.0
6.3096 -5.3333 0.0
8.1548 -5.3333 0.0
10 -5.3333 0.0
0 -5.6667 0.0
0.1111 -5.6667 0.0
0.2222 -5.6667 0.0
0.3333 -5.6667 0.0
0.4444 -5.6667 0.0
0.5556 -5.6667 0.0
0.6667 -5.6667 0.0
0.7778 -5.6667 0.0
0.8889 -5.6667 0.0
1 -5.6667 0.0
1.5849 -5.6667 0.0
2.5119 -5.6667 0.0
3.9811 -5.6667 0.0
6.3096 -5.6667 0.0
10 -5.6667 0.0
0 -6 0.0
0.0556 -6 0.0
0.1111 -6 0.0
0.1667 -6 0.0
0.2222 -6 0.0
0.2778 -6 0.0
0.3333 -6 0.0
0.3889 -6 0.0
0.4444 -6 0.0
0.5 -6 0.0
0.5556 -6 0.0
0.6111 -6 0.0
0.6667 -6 0.0
0.7222 -6 0.0
0.7778 -6 0.0
0.8333 -6 0.0
0.8889 -6 0.0
0.9444 -6 0.0
1 -6 0.0
1.2924 -6 0.0
1.5849 -6 0.0
2.0484 -6 0.0
2.5119 -6 0.0
3.2465 -6 0.0
3.9811 -6 0.0
5.1453 -6 0.0
6.3096 -6 0.0
8.1548 -6 0.0
10 -6 0.0
0 -6.3333 0.0
0.1111 -6.3333 0.0
0.2222 -6.3333 0.0
0.3333 -6.3333 0.0
0.4444 -6.3333 0.0
0.5556 -6.3333 0.0
0.6667 -6.3333 0.0
0.7778 -6.3333 0.0
0.8889 -6.3333 0.0
1 -6.3333 0.0
1.5849 -6.3333 0.0
2.5119 -6.3333 0.0
3.9811 -6.3333 0.0
6.3096 -6.3333 0.0
10 -6.3333 0.0
0 -6.6667 0.0
0.0556 -6.6667 0.0
0.1111 -6.6667 0.0
[...]
POINT_DATA 821
SCALARS Displacement_R double 1
LOOKUP_TABLE default
0
-0.047651
-0.0960852
-0.113833
-0.128176
-0.13449
-0.137558
-0.136373
-0.13299
-0.125178
-0.115992
-0.107571
-0.0984341
-0.0914348
-0.0843051
-0.0787611
-0.0733218
-0.0688656
-0.064578
-0.0510772
-0.0408791
-0.0322581
-0.0261754
-0.0203765
-0.0160587
-0.0115213
-0.00780935
-0.00353456
0
0
0.0263073
0.0196203
0.00902232
-0.00171543
-0.0136788
-0.022404
-0.0272757
-0.0296789
-0.0306741
-0.0273542
-0.0204622
-0.0136372
-0.00690833
0
0
0.00214864
0.000883683
0.0101418
0.0160474
0.0200646
0.021724
0.0218437
0.0203915
0.0187421
0.016408
0.0133983
0.0104797
0.0070175
0.00398042
0.000978447
-0.00155841
-0.00385505
-0.00574898
-0.0126092
-0.0149134
-0.0157618
-0.0150294
-0.0132113
-0.011289
-0.00850138
-0.00602409
-0.00275075
0
0
0.0094957
0.0156132
0.0200827
0.0217285
0.0207395
0.0179614
0.0143337
0.0104353
0.00670891
-0.00564061
-0.0101708
-0.0090283
-0.00514262
0
0
0.00210847
0.00497468
0.00792392
0.0113257
0.0132499
0.0151934
0.0163984
0.0173734
0.0180151
0.018293
0.0182712
0.0178474
0.0172807
0.0163793
0.0154583
0.0143218
0.0131848
0.0119371
0.00595313
0.00109112
-0.00362025
-0.00584562
-0.00703694
-0.00688673
-0.00574437
-0.004284
-0.00201509
0
0
0.00450074
0.00825964
0.0115464
0.0139274
0.0152888
0.0157817
0.015517
0.0146683
0.0134344
0.00521851
-0.00240655
-0.00495352
-0.00346334
0
0
0.0016785
0.00305633
0.00475656
0.006204
0.00759541
0.00877843
0.00990748
0.0108636
0.0116906
0.0123805
0.0128885
0.0132884
0.0135112
0.0136401
0.013621
0.0135161
0.0132942
0.0129989
0.0106495
0.00754913
0.00339369
0.000403403
-0.0021536
-0.0031628
-0.00327266
-0.00266967
-0.00132552
0
0
0.00246873
0.00482442
0.00694894
0.00873376
0.0101493
0.0111635
0.0117895
0.0120596
0.0120197
0.00876894
0.00252619
-0.00158888
-0.0019219
0
0
0.000939981
0.00195195
0.00288721
0.00384346
0.00471071
0.00556181
0.00634377
0.00708258
0.0077532
0.00836184
0.00890163
0.00936958
0.00977321
0.0101037
0.0103721
0.0105728
0.0107173
0.0108019
0.0104369
0.00916291
0.00659754
0.00412078
0.00139419
-0.000165941
-0.00111555
-0.00120353
-0.000685107
0
0
0.00159517
0.00312874
0.00457175
0.0058782
0.00701676
0.00796795
0.00872188
0.00927909
0.00964445
0.00917861
0.00528229
0.00106695
-0.000532904
0
0
0.00067286
0.00131538
0.00197253
0.00260317
0.00322674
0.00382247
0.00440107
0.00495007
0.00547088
0.00596155
0.00641574
0.00683916
0.00722275
0.00757391
0.00788444
0.0081613
0.00840175
0.00860856
0.00912621
0.00891833
0.00771967
0.00609744
0.00382278
0.00216227
0.00073033
0.000108165
-9.63762e-05
0
0
0.00112019
0.00221895
0.00327077
0.00425553
0.0051582
0.00596323
0.00666261
0.00725157
0.00772688
0.00858636
0.00668988
0.00311589
0.000705274
0
0
0.000484024
0.000972204
0.00145136
0.0019271
0.00239193
0.00284809
0.00329111
0.00372109
0.00413548
0.00453382
0.00491313
0.00527431
0.00561491
0.00593557
0.00623431
0.00651222
0.00676896
0.00700457
0.00787493
0.00822304
0.00795249
0.00710301
0.00546978
0.0039626
0.00230066
0.00127375
0.000440738
0
0
0.000862535
0.00171115
0.00253554
0.00332383
0.00406651
0.00475411
0.00538065
0.00594148
0.00643282
0.00790673
0.00743711
0.00472091
0.00180501
0
0
0.000392214
0.00078093
0.00117072
0.00155531
0.00193565
0.002309
0.00267608
0.00303427
0.00338426
0.00372446
0.00405328
0.00437161
0.00467705
0.00497085
0.00525068
0.00551791
0.00577111
0.00601103
0.00702762
0.0076682
0.00799015
0.0077207
0.0066832
0.00541144
0.00365184
0.00230908
0.000927731
0
0
0.000732112
0.00145483
0.00216141
0.00284537
0.00350074
0.00412114
0.00470273
0.00524179
0.005735
0.00753875
0.00802585
0.00606588
0.00278421
0
0
0.00034896
0.000693971
0.00104917
0.00140079
0.00174653
0.00208757
0.00242116
0.00274941
0.003071
0.00338669
0.00369424
0.00399524
0.00428734
0.00457179
0.00484654
0.00511273
0.0053688
0.00561558
0.0067326
0.00755624
0.00826035
0.00838184
0.00777764
0.00669369
0.00485304
0.00323456
0.00136803
0
0
0.000733131
0.00141485
0.00208375
0.00274181
0.00338316
0.0040005
0.00458937
0.00514562
0.00566581
0.00774612
0.00884357
0.00732973
0.00366106
0
0
0.000325808
0.000653161
0.00103004
0.0013975
0.00176027
0.00211828
0.00247261
0.00282125
0.00316489
0.00350237
0.00383252
0.00415617
0.00447153
0.00477954
0.0050785
0.00536936
0.00565068
0.00592325
0.00718541
0.00816654
0.00911288
0.00944796
0.00902925
0.00797514
0.00597528
0.00406451
0.0017662
0
0
0.000447104
0.00110942
0.0017438
0.00235556
0.00294603
0.00351315
0.00405577
0.00457199
0.00505984
0.00711147
0.0085403
0.00764086
0.00414545
0
0
0.000249868
0.000499367
0.000769808
0.00102988
0.00128714
0.00154086
0.0017948
0.00204559
0.00229501
0.00254128
0.00278405
0.00302353
0.00325865
0.0034899
0.00371612
0.00393797
0.00415431
0.00436581
0.00537998
0.00622447
0.00717721
0.00769984
0.00777545
0.00722781
0.00577967
0.00414634
0.00187495
0
0
0.000482141
0.000929163
0.00136457
0.00179392
0.00221693
0.00263072
0.00303338
0.00342282
0.00379717
0.00546716
0.0069323
0.00678649
0.00408122
0
0
0.000191256
0.000380687
0.000578968
0.000776875
0.000974101
0.00116943
0.00136176
0.00155207
0.00173964
0.00192536
0.00210795
0.00228876
0.00246647
0.00264209
0.00281449
0.00298446
0.003151
0.0033148
0.00411722
0.00481495
0.00567055
0.00622878
0.00653551
0.00630919
0.005302
0.00395528
0.00185109
0
0
0.000342039
0.000680607
0.00101573
0.00134715
0.00167331
0.00199223
0.00230314
0.00260505
0.00289707
0.00424051
0.00557753
0.00582403
0.00378589
0
0
0.000146896
0.00029357
0.000441922
0.000589306
0.000736166
0.000882201
0.00102715
0.00117092
0.00131378
0.0014554
0.00159548
0.00173432
0.00187141
0.00200702
0.00214066
0.00227263
0.0024024
0.00253032
0.00316494
0.00372926
0.00445645
0.00497415
0.00536401
0.00532231
0.00464264
0.00356984
0.00171769
0
0
0.000256392
0.000511351
0.000764774
0.00101568
0.00126332
0.00150645
0.00174458
0.00197697
0.00220295
0.00326449
0.0044042
0.00481654
0.00332165
0
0
0.000110429
0.000220506
0.000330574
0.000440204
0.000549719
0.000658545
0.000767086
0.000874816
0.00098208
0.0010886
0.00119406
0.00129882
0.00140237
0.00150507
0.0016064
0.00170674
0.00180559
0.00190329
0.0023918
0.00283365
0.00342044
0.00386049
0.00424524
0.00429676
0.00385454
0.00303506
0.0014936
0
0
0.000186977
0.000373765
0.000559455
0.000743487
0.000925538
0.00110478
0.00128087
0.0014533
0.00162162
0.00242377
0.00332908
0.00376586
0.00271994
0
0
7.82108e-05
0.000156468
0.000233445
0.000310424
0.000387203
0.000463735
0.000540225
0.000616282
0.000692171
0.000767613
0.000842462
0.000916875
0.000990565
0.00106371
0.00113602
0.00120768
0.00127841
0.0013484
0.00170078
0.00202258
0.00245988
0.00279898
0.00312394
0.00321163
0.00294773
0.00236918
0.00119006
0
0
0.000119584
0.000242714
0.000366018
0.000488483
0.000609718
0.000729163
0.000846633
0.000961853
0.00107456
0.00161746
0.00225526
0.00262861
0.00198609
0
0
4.5094e-05
8.99399e-05
0.000135116
0.000179604
0.000224707
0.000269455
0.000314291
0.000358806
0.000403245
0.000447425
0.000491276
0.000534914
0.000578157
0.000621146
0.000663686
0.00070593
0.000747673
0.000789079
0.000998379
0.00119294
0.00146228
0.00168131
0.00191007
0.00200172
0.00189653
0.00156515
0.000810359
0
0
6.47247e-05
0.000135712
0.000203893
0.000270951
0.000337239
0.000402662
0.000467219
0.000530817
0.000593349
0.000900693
0.00128648
0.00157816
0.00129475
0
0
2.25001e-05
4.49533e-05
7.12029e-05
9.67371e-05
0.000122286
0.000147609
0.000172876
0.000197977
0.000222986
0.000247875
0.000272561
0.000297159
0.000321537
0.000345811
0.000369849
0.000393765
0.000417427
0.00044095
0.000560724
0.000674012
0.00083518
0.000973217
0.00113158
0.00121884
0.00120028
0.00102982
0.000553778
0
0
3.6694e-05
7.29205e-05
0.000109299
0.000145635
0.00018184
0.000217754
0.000253327
0.000288488
0.00032317
0.000495467
0.000719888
0.000912713
0.000790316
0
0
1.24855e-05
2.49472e-05
3.7661e-05
5.05059e-05
6.31003e-05
7.56868e-05
8.81833e-05
0.00010064
0.000113043
0.000125412
0.000137693
0.000149949
0.000162117
0.000174248
0.000186287
0.000198276
0.000210166
0.000221996
0.000282748
0.000340397
0.00042412
0.000496264
0.000584008
0.000634531
0.000638124
0.000556146
0.000304321
0
0
1.37994e-05
2.75037e-05
4.12414e-05
5.49313e-05
6.85497e-05
8.20463e-05
9.54119e-05
0.000108627
0.000121672
0.000186747
0.000272845
0.00035039
0.00030974
0
0
0
0
0
0
0
0
0
0
0
0
0
0
0
0
0
0
0
0
0
0
0
0
0
0
0
0
0
0
SCALARS Displacement_Z double 1
LOOKUP_TABLE default
-1.42675
-1.13961
-0.942968
-0.809521
-0.707212
-0.618446
-0.546383
-0.46886
-0.399474
-0.338163
-0.291629
-0.258716
-0.233006
-0.211598
-0.194075
-0.17902
-0.166256
-0.155196
-0.145662
-0.107965
-0.0847991
-0.0615488
-0.0466586
-0.0312512
-0.0212366
-0.0108809
-0.00451999
0.000824526
0.00235706
-0.697453
-0.639326
-0.542944
-0.44438
-0.356351
-0.284627
-0.231963
-0.19459
-0.167079
-0.146069
-0.0851924
-0.0469126
-0.0214185
-0.00466501
0.00222369
-0.42742
-0.439384
-0.415323
-0.409447
-0.390416
-0.372687
-0.349704
-0.32658
-0.302897
-0.281262
-0.259104
-0.239712
-0.221764
-0.20539
-0.190666
-0.177512
-0.165746
-0.155225
-0.145749
-0.108997
-0.0857473
-0.0621681
-0.0472049
-0.0316771
-0.0216175
-0.0111947
-0.00481683
0.000552212
0.00208294
-0.311512
-0.313905
-0.298662
-0.277512
-0.252287
-0.226036
-0.201055
-0.178482
-0.158696
-0.141714
-0.0856167
-0.0474504
-0.0218149
-0.00497365
0.00193456
-0.254984
-0.247248
-0.246346
-0.241677
-0.238685
-0.232325
-0.226094
-0.218867
-0.211168
-0.203053
-0.194968
-0.18679
-0.178509
-0.170559
-0.162656
-0.155203
-0.147953
-0.141094
-0.134535
-0.105907
-0.084929
-0.0625635
-0.0476607
-0.0321671
-0.0220159
-0.011546
-0.00513499
0.000255177
0.00177975
-0.204086
-0.200351
-0.195444
-0.188337
-0.179239
-0.168849
-0.157854
-0.146737
-0.135894
-0.125644
-0.0832957
-0.0476747
-0.0221952
-0.00529458
0.00162199
-0.166989
-0.168392
-0.167298
-0.166542
-0.164694
-0.162739
-0.160177
-0.157403
-0.15432
-0.151016
-0.147428
-0.143706
-0.139857
-0.13592
-0.131933
-0.127935
-0.123935
-0.119952
-0.116002
-0.0969727
-0.0808345
-0.0615287
-0.0475536
-0.0325059
-0.0223599
-0.0119008
-0.00545592
-6.34689e-05
0.00145872
-0.143704
-0.143597
-0.141779
-0.138793
-0.134802
-0.130019
-0.124649
-0.118887
-0.112913
-0.106907
-0.0778705
-0.0471875
-0.022481
-0.00561262
0.00129347
-0.126305
-0.125768
-0.125548
-0.124893
-0.124215
-0.123204
-0.122077
-0.120736
-0.119244
-0.117579
-0.115797
-0.113887
-0.111865
-0.109762
-0.107572
-0.105334
-0.103038
-0.100698
-0.0983279
-0.0860385
-0.0744644
-0.0589261
-0.0466215
-0.0324976
-0.0225708
-0.012216
-0.00576752
-0.000395737
0.00112367
-0.111653
-0.111194
-0.110235
-0.108698
-0.106623
-0.104072
-0.101126
-0.0978606
-0.094354
-0.090694
-0.0709935
-0.0458599
-0.0225996
-0.00591372
0.000953132
-0.0998375
-0.0998831
-0.099682
-0.0994125
-0.098987
-0.0984731
-0.0978377
-0.0971038
-0.0962719
-0.0953459
-0.094329
-0.0932332
-0.092062
-0.0908228
-0.0895213
-0.0881672
-0.086763
-0.0853128
-0.0838243
-0.0756869
-0.0674451
-0.0553296
-0.0449182
-0.0320642
-0.0225813
-0.0124543
-0.00605541
-0.00073319
0.000779168
-0.0904631
-0.0903172
-0.0897785
-0.0888896
-0.0876729
-0.0861549
-0.0843701
-0.0823532
-0.0801407
-0.0777743
-0.0640598
-0.043863
-0.0224989
-0.00618471
0.00060566
-0.0827262
-0.0826628
-0.082562
-0.082374
-0.0821302
-0.081807
-0.081423
-0.0809687
-0.0804538
-0.0798745
-0.0792388
-0.0785472
-0.0778023
-0.0770089
-0.076168
-0.0752862
-0.0743632
-0.0734041
-0.0724104
-0.0667832
-0.0607857
-0.0513544
-0.0426868
-0.0312324
-0.0223611
-0.0125897
-0.00630719
-0.00106831
0.000429851
-0.0761686
-0.0760421
-0.0756942
-0.0751216
-0.0743334
-0.0733413
-0.0721624
-0.0708138
-0.0693141
-0.0676845
-0.0577432
-0.0414679
-0.0221657
-0.00641495
0.000255902
-0.0706088
-0.0705863
-0.0705131
-0.0703968
-0.0702271
-0.070014
-0.0697544
-0.069449
-0.0691008
-0.0687081
-0.0682743
-0.0678006
-0.067288
-0.0667388
-0.066154
-0.0655367
-0.0648871
-0.0642087
-0.0635017
-0.0594036
-0.0548792
-0.0474124
-0.0401868
-0.0300876
-0.0219165
-0.0126114
-0.00651395
-0.00139451
8.08563e-05
-0.0658436
-0.065772
-0.0655331
-0.0651357
-0.064584
-0.0638839
-0.0630444
-0.0620748
-0.0609862
-0.0597906
-0.052236
-0.0389083
-0.0216217
-0.00659775
-9.11147e-05
-0.0616939
-0.0616962
-0.0616495
-0.0615581
-0.0614508
-0.0612986
-0.061115
-0.0608975
-0.0606469
-0.0603625
-0.0600458
-0.0596981
-0.0593195
-0.0589121
-0.0584761
-0.058014
-0.0575255
-0.0570137
-0.056478
-0.0533278
-0.049768
-0.043701
-0.0376092
-0.0287295
-0.0212822
-0.0125244
-0.00667183
-0.00170705
-0.000263148
-0.0579962
-0.0579485
-0.0578345
-0.0575795
-0.0571821
-0.0566572
-0.0560174
-0.0552716
-0.0544285
-0.0534965
-0.0474794
-0.0363361
-0.0209116
-0.0067318
-0.000431271
-0.0542967
-0.0543599
-0.0544964
-0.0546103
-0.0546277
-0.0545515
-0.054431
-0.0542717
-0.0540807
-0.0538598
-0.0536115
-0.0533374
-0.0530382
-0.0527155
-0.0523695
-0.0520019
-0.0516127
-0.0512041
-0.0507755
-0.0482372
-0.0453292
-0.0402733
-0.0350708
-0.0272558
-0.0205115
-0.0123485
-0.00678204
-0.00200213
-0.000598178
-0.0483364
-0.0482912
-0.0481153
-0.0478828
-0.0475769
-0.0471948
-0.0467378
-0.0462081
-0.0456092
-0.0449452
-0.0405821
-0.0320921
-0.0193831
-0.00671621
-0.000829623
-0.0431965
-0.0431278
-0.0429525
-0.0427143
-0.0425333
-0.0423954
-0.0422624
-0.0421277
-0.0419855
-0.0418316
-0.0416659
-0.0414866
-0.041294
-0.0410874
-0.0408672
-0.0406334
-0.0403863
-0.0401266
-0.039854
-0.0382213
-0.0363167
-0.0329007
-0.0292431
-0.0234614
-0.0181904
-0.0114307
-0.00660489
-0.0023271
-0.00104295
-0.0376293
-0.0376114
-0.0374933
-0.0373172
-0.0371006
-0.0368417
-0.0365392
-0.0361924
-0.0358018
-0.0353685
-0.0324804
-0.0265815
-0.0169927
-0.00645187
-0.00122736
-0.033187
-0.0331586
-0.0331378
-0.0331152
-0.0330618
-0.0330133
-0.0329496
-0.0328753
-0.0327896
-0.0326931
-0.0325863
-0.0324697
-0.0323432
-0.0322072
-0.0320617
-0.0319071
-0.0317434
-0.0315712
-0.0313901
-0.0303012
-0.0290154
-0.0266617
-0.0240716
-0.0198184
-0.0157719
-0.0103143
-0.00625652
-0.00252969
-0.00138772
-0.0292664
-0.0292418
-0.0291859
-0.0290931
-0.0289657
-0.0288034
-0.0286075
-0.0283791
-0.0281194
-0.0278298
-0.025871
-0.0217307
-0.014571
-0.00602721
-0.00151792
-0.0257927
-0.0257934
-0.0257819
-0.0257604
-0.0257367
-0.0257026
-0.0256625
-0.0256139
-0.0255586
-0.0254959
-0.0254263
-0.0253499
-0.0252666
-0.0251767
-0.02508
-0.024977
-0.0248674
-0.0247518
-0.02463
-0.0238919
-0.0230109
-0.0213739
-0.0195365
-0.0164318
-0.0133752
-0.0090765
-0.0057614
-0.00260442
-0.00161932
-0.0226911
-0.0226801
-0.0226429
-0.0225822
-0.0224979
-0.0223899
-0.0222592
-0.0221062
-0.0219315
-0.0217359
-0.0203968
-0.0174896
-0.0122147
-0.00546951
-0.00168988
-0.0198922
-0.0198891
-0.0198817
-0.01987
-0.0198524
-0.0198301
-0.0198028
-0.0197706
-0.0197336
-0.0196917
-0.0196451
-0.0195938
-0.0195379
-0.0194774
-0.0194123
-0.0193428
-0.0192688
-0.0191906
-0.0191081
-0.0186062
-0.0180023
-0.0168675
-0.0155739
-0.0133386
-0.0110756
-0.00777742
-0.00514736
-0.00255188
-0.00172831
-0.0173579
-0.0173488
-0.0173242
-0.0172834
-0.0172267
-0.0171541
-0.0170662
-0.0169631
-0.0168454
-0.0167133
-0.0158029
-0.0137863
-0.00997903
-0.00480561
-0.00173575
-0.0150615
-0.0150554
-0.0150484
-0.0150402
-0.0150279
-0.0150128
-0.0149944
-0.0149725
-0.0149475
-0.0149192
-0.0148877
-0.0148531
-0.0148154
-0.0147748
-0.014731
-0.0146843
-0.0146347
-0.0145822
-0.0145268
-0.0141896
-0.0137817
-0.013009
-0.0121169
-0.0105445
-0.00891415
-0.00646062
-0.00443904
-0.0023753
-0.00170868
-0.0129657
-0.0129647
-0.012944
-0.0129126
-0.012872
-0.0128219
-0.0127625
-0.0126937
-0.0126154
-0.0125277
-0.0119228
-0.0105603
-0.00789276
-0.00405667
-0.00165035
-0.0111547
-0.0111347
-0.0111004
-0.0110778
-0.0110569
-0.01104
-0.0110225
-0.0110048
-0.0109859
-0.0109657
-0.0109439
-0.0109205
-0.0108953
-0.0108684
-0.0108397
-0.0108091
-0.0107767
-0.0107425
-0.0107065
-0.0104861
-0.01022
-0.00970926
-0.00911438
-0.00804582
-0.00690858
-0.00515489
-0.00365297
-0.00207758
-0.00155578
-0.00820002
-0.00820379
-0.00819956
-0.00818727
-0.00816871
-0.0081444
-0.00811464
-0.00807956
-0.00803926
-0.00799384
-0.00767609
-0.00694307
-0.00544317
-0.00312233
-0.00155433
-0.00592179
-0.00592465
-0.00593255
-0.00593832
-0.00594055
-0.00594063
-0.00593894
-0.00593565
-0.00593108
-0.00592517
-0.00591818
-0.00591003
-0.0059009
-0.00589071
-0.00587961
-0.00586753
-0.00585457
-0.0058407
-0.00582599
-0.00573385
-0.00562115
-0.00540062
-0.00514005
-0.00465998
-0.00413283
-0.00328909
-0.00252808
-0.00169631
-0.00140906
-0.00412459
-0.00411986
-0.00411552
-0.00410983
-0.00410232
-0.00409279
-0.00408115
-0.00406738
-0.00405146
-0.00403342
-0.00390522
-0.00360273
-0.00296284
-0.00192074
-0.00117442
-0.00255228
-0.00255459
-0.00255516
-0.00255478
-0.0025548
-0.00255354
-0.00255224
-0.00255024
-0.00254808
-0.00254542
-0.00254254
-0.00253926
-0.00253574
-0.00253187
-0.00252774
-0.00252329
-0.00251857
-0.00251354
-0.00250825
-0.00247536
-0.00243538
-0.00235671
-0.00226349
-0.00208901
-0.00189591
-0.00157852
-0.00128653
-0.000958355
-0.000844077
-0.00119459
-0.00119454
-0.00119352
-0.00119218
-0.00119037
-0.00118803
-0.00118517
-0.00118178
-0.00117787
-0.00117344
-0.00114223
-0.00106868
-0.000911029
-0.000650261
-0.000456941
0
0
0
0
0
0
0
0
0
0
0
0
0
0
0
0
0
0
0
0
0
0
0
0
0
0
0
0
0
SCALARS Stress_R double 1
LOOKUP_TABLE default
-93000.7
-79669.2
-54855.5
-32076.7
-22238.9
-14598.5
-8938.05
-4075.01
1104.64
5096.12
6636.55
6835.81
6534.16
5641.69
5136.84
4398.34
3982.25
3490.03
2750.19
1757
1061.01
652.983
375.234
266.388
163.952
125.826
89.1954
66.6658
49.4265
-3974.15
-5317.87
-10233.8
-8944.04
-7527.05
-5908.18
-3767.48
-2127.08
-1145.71
-417.577
242.136
205.398
116.645
71.4226
39.9734
359.306
-3946.89
-2472.67
1978.65
-170.957
-1088.91
-2403.49
-3130.7
-3686.49
-3430.58
-3935.6
-3706.41
-3734.87
-3560.09
-3223.52
-2909.67
-2504.15
-2182.32
-1794.3
-954.123
-211.9
-105.91
60.3429
60.5604
73.3092
64.6842
54.3764
42.6092
30.7755
3120.55
967.538
-201.204
-751.547
-1536.54
-2113.97
-2319.76
-2288.14
-2131.98
-1848.93
-642.516
-93.1063
31.3077
39.1244
22.3111
109.485
527.02
1052.92
1279.28
1109.47
353.896
181.889
-247.817
-387.494
-641.914
-836.1
-1061.51
-1236.46
-1346.44
-1459.8
-1460.72
-1519.36
-1484.27
-1506.88
-1131.22
-812.577
-460.918
-184.853
-94.1328
-2.46785
9.80063
25.0148
19.0491
14.0981
365.374
696.078
514.625
292.215
-33.2111
-343.659
-601.321
-799.354
-918.868
-1034.46
-776.815
-268.33
-39.3642
10.5113
5.90292
812.195
573.566
549.325
641.371
502.777
414.824
302.219
237.168
121.139
43.7714
-74.252
-164.093
-261.826
-346.069
-422.991
-493.047
-555.641
-608.641
-667.322
-687.113
-703.407
-479.514
-311.123
-176.464
-66.5688
-33.9434
-2.51528
-2.88317
-1.90612
606.15
432.52
369.958
276.074
158.222
33.7807
-90.5575
-206.119
-308.085
-417.974
-563.643
-321.372
-92.446
-15.9382
-9.81366
322.462
381.838
404.835
366.822
356.328
304.426
283.056
236.348
203.484
152.147
110.708
59.5273
13.6167
-32.6362
-79.1893
-120.117
-161.963
-197.012
-254.483
-348.661
-445.367
-372.624
-316.664
-201.161
-110.487
-65.9835
-27.8237
-22.9328
-17.3008
265.642
299.647
272.267
233.329
181.004
120.416
55.6015
-9.85026
-73.0119
-143.462
-335.947
-290.832
-124.502
-39.8656
-24.8903
289.776
264.995
255.806
255.229
242.384
230.364
214.393
198.143
178.066
157.384
134.787
111.293
87.474
62.3948
37.9492
12.5323
-10.4795
-33.7237
-66.7303
-155.672
-249.196
-253.951
-263.6
-190.673
-133.639
-87.6542
-50.529
-40.9997
-32.0542
234.657
216.798
205.823
186.3
160.739
130.356
96.2935
60.1112
22.6145
-18.7994
-178.591
-228.532
-138.371
-61.0316
-39.2575
198.604
202.863
203.898
197.086
193.603
185.162
178.714
168.368
159.316
146.999
135.734
122.094
109.1
94.6495
80.4061
65.5152
51.4002
37.0006
17.7641
-49.4962
-122.333
-158.323
-196.797
-164.927
-140.933
-101.578
-70.4803
-57.185
-46.0521
180.51
182.081
174.951
164.483
150.096
132.549
112.523
90.6439
67.4116
42.2127
-77.8927
-164.885
-140.451
-79.5016
-52.7946
180.801
178.5
177.999
176.401
173.406
168.916
164.565
158.669
152.889
145.911
138.88
130.79
122.763
113.78
104.937
95.3124
86.1685
76.4329
65.0025
14.3135
-40.823
-87.7248
-137.23
-137.003
-139.832
-110.93
-87.8842
-71.6856
-59.1493
179.432
175.163
170.899
163.902
154.748
143.389
130.275