# vtk DataFile Version 2.0
./vtk
ASCII

DATASET UNSTRUCTURED_GRID
POINTS 1809 double
0 0 0.0
0.25 0 0.0
0.5 0 0.0
0.75 0 0.0
1 0 0.0
1.25 0 0.0
1.5 0 0.0
1.75 0 0.0
2 0 0.0
2.25 0 0.0
2.5 0 0.0
2.75 0 0.0
3 0 0.0
3.25 0 0.0
3.5 0 0.0
3.75 0 0.0
4 0 0.0
4.25 0 0.0
4.5 0 0.0
4.75 0 0.0
5 0 0.0
5.7289 0 0.0
6.4577 0 0.0
7.3991 0 0.0
8.3405 0 0.0
9.5563 0 0.0
10.7722 0 0.0
12.3425 0 0.0
13.9128 0 0.0
15.9409 0 0.0
17.9691 0 0.0
20.5885 0 0.0
23.2079 0 0.0
26.5911 0 0.0
29.9742 0 0.0
34.3437 0 0.0
38.7132 0 0.0
44.3566 0 0.0
50 0 0.0
0 -0.2 0.0
0.5 -0.2 0.0
1 -0.2 0.0
1.5 -0.2 0.0
2 -0.2 0.0
2.5 -0.2 0.0
3 -0.2 0.0
3.5 -0.2 0.0
4 -0.2 0.0
4.5 -0.2 0.0
5 -0.2 0.0
6.4577 -0.2 0.0
8.3405 -0.2 0.0
10.7722 -0.2 0.0
13.9128 -0.2 0.0
17.9691 -0.2 0.0
23.2079 -0.2 0.0
29.9742 -0.2 0.0
38.7132 -0.2 0.0
50 -0.2 0.0
0 -0.4 0.0
0.25 -0.4 0.0
0.5 -0.4 0.0
0.75 -0.4 0.0
1 -0.4 0.0
1.25 -0.4 0.0
1.5 -0.4 0.0
1.75 -0.4 0.0
2 -0.4 0.0
2.25 -0.4 0.0
2.5 -0.4 0.0
2.75 -0.4 0.0
3 -0.4 0.0
3.25 -0.4 0.0
3.5 -0.4 0.0
3.75 -0.4 0.0
4 -0.4 0.0
4.25 -0.4 0.0
4.5 -0.4 0.0
4.75 -0.4 0.0
5 -0.4 0.0
5.7289 -0.4 0.0
6.4577 -0.4 0.0
7.3991 -0.4 0.0
8.3405 -0.4 0.0
9.5563 -0.4 0.0
10.7722 -0.4 0.0
12.3425 -0.4 0.0
13.9128 -0.4 0.0
15.9409 -0.4 0.0
17.9691 -0.4 0.0
20.5885 -0.4 0.0
23.2079 -0.4 0.0
26.5911 -0.4 0.0
29.9742 -0.4 0.0
34.3437 -0.4 0.0
38.7132 -0.4 0.0
44.3566 -0.4 0.0
50 -0.4 0.0
0 -0.6 0.0
0.5 -0.6 0.0
1 -0.6 0.0
1.5 -0.6 0.0
2 -0.6 0.0
2.5 -0.6 0.0
3 -0.6 0.0
3.5 -0.6 0.0
4 -0.6 0.0
4.5 -0.6 0.0
5 -0.6 0.0
6.4577 -0.6 0.0
8.3405 -0.6 0.0
10.7722 -0.6 0.0
13.9128 -0.6 0.0
17.9691 -0.6 0.0
23.2079 -0.6 0.0
29.9742 -0.6 0.0
38.7132 -0.6 0.0
50 -0.6 0.0
0 -0.8 0.0
0.25 -0.8 0.0
0.5 -0.8 0.0
0.75 -0.8 0.0
1 -0.8 0.0
1.25 -0.8 0.0
1.5 -0.8 0.0
1.75 -0.8 0.0
2 -0.8 0.0
2.25 -0.8 0.0
2.5 -0.8 0.0
2.75 -0.8 0.0
3 -0.8 0.0
3.25 -0.8 0.0
3.5 -0.8 0.0
3.75 -0.8 0.0
4 -0.8 0.0
4.25 -0.8 0.0
4.5 -0.8 0.0
4.75 -0.8 0.0
5 -0.8 0.0
5.7289 -0.8 0.0
6.4577 -0.8 0.0
7.3991 -0.8 0.0
8.3405 -0.8 0.0
9.5563 -0.8 0.0
10.7722 -0.8 0.0
12.3425 -0.8 0.0
13.9128 -0.8 0.0
15.9409 -0.8 0.0
17.9691 -0.8 0.0
20.5885 -0.8 0.0
23.2079 -0.8 0.0
26.5911 -0.8 0.0
29.9742 -0.8 0.0
34.3437 -0.8 0.0
38.7132 -0.8 0.0
44.3566 -0.8 0.0
50 -0.8 0.0
0 -1 0.0
0.5 -1 0.0
1 -1 0.0
1.5 -1 0.0
2 -1 0.0
2.5 -1 0.0
3 -1 0.0
3.5 -1 0.0
4 -1 0.0
4.5 -1 0.0
5 -1 0.0
6.4577 -1 0.0
8.3405 -1 0.0
10.7722 -1 0.0
13.9128 -1 0.0
17.9691 -1 0.0
23.2079 -1 0.0
29.9742 -1 0.0
38.7132 -1 0.0
50 -1 0.0
0 -1.2 0.0
0.25 -1.2 0.0
0.5 -1.2 0.0
0.75 -1.2 0.0
1 -1.2 0.0
1.25 -1.2 0.0
1.5 -1.2 0.0
1.75 -1.2 0.0
2 -1.2 0.0
2.25 -1.2 0.0
2.5 -1.2 0.0
2.75 -1.2 0.0
3 -1.2 0.0
3.25 -1.2 0.0
3.5 -1.2 0.0
3.75 -1.2 0.0
4 -1.2 0.0
4.25 -1.2 0.0
4.5 -1.2 0.0
4.75 -1.2 0.0
5 -1.2 0.0
5.7289 -1.2 0.0
6.4577 -1.2 0.0
7.3991 -1.2 0.0
8.3405 -1.2 0.0
9.5563 -1.2 0.0
10.7722 -1.2 0.0
12.3425 -1.2 0.0
13.9128 -1.2 0.0
15.9409 -1.2 0.0
17.9691 -1.2 0.0
20.5885 -1.2 0.0
23.2079 -1.2 0.0
26.5911 -1.2 0.0
29.9742 -1.2 0.0
34.3437 -1.2 0.0
38.7132 -1.2 0.0
44.3566 -1.2 0.0
50 -1.2 0.0
0 -1.4 0.0
0.5 -1.4 0.0
1 -1.4 0.0
1.5 -1.4 0.0
2 -1.4 0.0
2.5 -1.4 0.0
3 -1.4 0.0
3.5 -1.4 0.0
4 -1.4 0.0
4.5 -1.4 0.0
5 -1.4 0.0
6.4577 -1.4 0.0
8.3405 -1.4 0.0
10.7722 -1.4 0.0
13.9128 -1.4 0.0
17.9691 -1.4 0.0
23.2079 -1.4 0.0
29.9742 -1.4 0.0
38.7132 -1.4 0.0
50 -1.4 0.0
0 -1.6 0.0
0.25 -1.6 0.0
0.5 -1.6 0.0
0.75 -1.6 0.0
1 -1.6 0.0
1.25 -1.6 0.0
1.5 -1.6 0.0
1.75 -1.6 0.0
2 -1.6 0.0
2.25 -1.6 0.0
2.5 -1.6 0.0
2.75 -1.6 0.0
3 -1.6 0.0
3.25 -1.6 0.0
3.5 -1.6 0.0
3.75 -1.6 0.0
4 -1.6 0.0
4.25 -1.6 0.0
4.5 -1.6 0.0
4.75 -1.6 0.0
5 -1.6 0.0
5.7289 -1.6 0.0
6.4577 -1.6 0.0
7.3991 -1.6 0.0
8.3405 -1.6 0.0
9.5563 -1.6 0.0
10.7722 -1.6 0.0
12.3425 -1.6 0.0
13.9128 -1.6 0.0
15.9409 -1.6 0.0
17.9691 -1.6 0.0
20.5885 -1.6 0.0
23.2079 -1.6 0.0
26.5911 -1.6 0.0
29.9742 -1.6 0.0
34.3437 -1.6 0.0
38.7132 -1.6 0.0
44.3566 -1.6 0.0
50 -1.6 0.0
0 -1.8 0.0
0.5 -1.8 0.0
1 -1.8 0.0
1.5 -1.8 0.0
2 -1.8 0.0
2.5 -1.8 0.0
3 -1.8 0.0
3.5 -1.8 0.0
4 -1.8 0.0
4.5 -1.8 0.0
5 -1.8 0.0
6.4577 -1.8 0.0
8.3405 -1.8 0.0
10.7722 -1.8 0.0
13.9128 -1.8 0.0
17.9691 -1.8 0.0
23.2079 -1.8 0.0
29.9742 -1.8 0.0
38.7132 -1.8 0.0
50 -1.8 0.0
0 -2 0.0
0.25 -2 0.0
0.5 -2 0.0
0.75 -2 0.0
1 -2 0.0
1.25 -2 0.0
1.5 -2 0.0
1.75 -2 0.0
2 -2 0.0
2.25 -2 0.0
2.5 -2 0.0
2.75 -2 0.0
3 -2 0.0
3.25 -2 0.0
3.5 -2 0.0
3.75 -2 0.0
4 -2 0.0
4.25 -2 0.0
4.5 -2 0.0
4.75 -2 0.0
5 -2 0.0
5.7289 -2 0.0
6.4577 -2 0.0
7.3991 -2 0.0
8.3405 -2 0.0
9.5563 -2 0.0
10.7722 -2 0.0
12.3425 -2 0.0
13.9128 -2 0.0
15.9409 -2 0.0
17.9691 -2 0.0
20.5885 -2 0.0
23.2079 -2 0.0
26.5911 -2 0.0
29.9742 -2 0.0
34.3437 -2 0.0
38.7132 -2 0.0
44.3566 -2 0.0
50 -2 0.0
0 -2.2 0.0
0.5 -2.2 0.0
1 -2.2 0.0
1.5 -2.2 0.0
2 -2.2 0.0
2.5 -2.2 0.0
3 -2.2 0.0
3.5 -2.2 0.0
4 -2.2 0.0
4.5 -2.2 0.0
5 -2.2 0.0
6.4577 -2.2 0.0
8.3405 -2.2 0.0
10.7722 -2.2 0.0
13.9128 -2.2 0.0
17.9691 -2.2 0.0
23.2079 -2.2 0.0
29.9742 -2.2 0.0
38.7132 -2.2 0.0
50 -2.2 0.0
0 -2.4 0.0
0.25 -2.4 0.0
0.5 -2.4 0.0
0.75 -2.4 0.0
1 -2.4 0.0
1.25 -2.4 0.0
1.5 -2.4 0.0
1.75 -2.4 0.0
2 -2.4 0.0
2.25 -2.4 0.0
2.5 -2.4 0.0
2.75 -2.4 0.0
3 -2.4 0.0
3.25 -2.4 0.0
3.5 -2.4 0.0
3.75 -2.4 0.0
4 -2.4 0.0
4.25 -2.4 0.0
4.5 -2.4 0.0
4.75 -2.4 0.0
5 -2.4 0.0
5.7289 -2.4 0.0
6.4577 -2.4 0.0
7.3991 -2.4 0.0
8.3405 -2.4 0.0
9.5563 -2.4 0.0
10.7722 -2.4 0.0
12.3425 -2.4 0.0
13.9128 -2.4 0.0
15.9409 -2.4 0.0
17.9691 -2.4 0.0
20.5885 -2.4 0.0
23.2079 -2.4 0.0
26.5911 -2.4 0.0
29.9742 -2.4 0.0
34.3437 -2.4 0.0
38.7132 -2.4 0.0
44.3566 -2.4 0.0
50 -2.4 0.0
0 -2.6 0.0
0.5 -2.6 0.0
1 -2.6 0.0
1.5 -2.6 0.0
2 -2.6 0.0
2.5 -2.6 0.0
3 -2.6 0.0
3.5 -2.6 0.0
4 -2.6 0.0
4.5 -2.6 0.0
5 -2.6 0.0
6.4577 -2.6 0.0
8.3405 -2.6 0.0
10.7722 -2.6 0.0
13.9128 -2.6 0.0
17.9691 -2.6 0.0
23.2079 -2.6 0.0
29.9742 -2.6 0.0
38.7132 -2.6 0.0
50 -2.6 0.0
0 -2.8 0.0
0.25 -2.8 0.0
0.5 -2.8 0.0
0.75 -2.8 0.0
1 -2.8 0.0
1.25 -2.8 0.0
1.5 -2.8 0.0
1.75 -2.8 0.0
2 -2.8 0.0
2.25 -2.8 0.0
2.5 -2.8 0.0
2.75 -2.8 0.0
3 -2.8 0.0
3.25 -2.8 0.0
3.5 -2.8 0.0
3.75 -2.8 0.0
4 -2.8 0.0
4.25 -2.8 0.0
4.5 -2.8 0.0
4.75 -2.8 0.0
5 -2.8 0.0
5.7289 -2.8 0.0
6.4577 -2.8 0.0
7.3991 -2.8 0.0
8.3405 -2.8 0.0
9.5563 -2.8 0.0
10.7722 -2.8 0.0
12.3425 -2.8 0.0
13.9128 -2.8 0.0
15.9409 -2.8 0.0
17.9691 -2.8 0.0
20.5885 -2.8 0.0
23.2079 -2.8 0.0
26.5911 -2.8 0.0
29.9742 -2.8 0.0
34.3437 -2.8 0.0
38.7132 -2.8 0.0
44.3566 -2.8 0.0
50 -2.8 0.0
0 -3 0.0
0.5 -3 0.0
1 -3 0.0
1.5 -3 0.0
2 -3 0.0
2.5 -3 0.0
3 -3 0.0
3.5 -3 0.0
4 -3 0.0
4.5 -3 0.0
5 -3 0.0
6.4577 -3 0.0
8.3405 -3 0.0
10.7722 -3 0.0
13.9128 -3 0.0
17.9691 -3 0.0
23.2079 -3 0.0
29.9742 -3 0.0
38.7132 -3 0.0
50 -3 0.0
0 -3.2 0.0
0.25 -3.2 0.0
0.5 -3.2 0.0
0.75 -3.2 0.0
1 -3.2 0.0
1.25 -3.2 0.0
1.5 -3.2 0.0
1.75 -3.2 0.0
2 -3.2 0.0
2.25 -3.2 0.0
2.5 -3.2 0.0
2.75 -3.2 0.0
3 -3.2 0.0
3.25 -3.2 0.0
3.5 -3.2 0.0
3.75 -3.2 0.0
4 -3.2 0.0
4.25 -3.2 0.0
4.5 -3.2 0.0
4.75 -3.2 0.0
5 -3.2 0.0
5.7289 -3.2 0.0
6.4577 -3.2 0.0
7.3991 -3.2 0.0
8.3405 -3.2 0.0
9.5563 -3.2 0.0
10.7722 -3.2 0.0
12.3425 -3.2 0.0
13.9128 -3.2 0.0
15.9409 -3.2 0.0
17.9691 -3.2 0.0
20.5885 -3.2 0.0
23.2079 -3.2 0.0
26.5911 -3.2 0.0
29.9742 -3.2 0.0
34.3437 -3.2 0.0
38.7132 -3.2 0.0
44.3566 -3.2 0.0
50 -3.2 0.0
0 -3.4 0.0
0.5 -3.4 0.0
1 -3.4 0.0
1.5 -3.4 0.0
2 -3.4 0.0
2.5 -3.4 0.0
3 -3.4 0.0
3.5 -3.4 0.0
4 -3.4 0.0
4.5 -3.4 0.0
5 -3.4 0.0
6.4577 -3.4 0.0
8.3405 -3.4 0.0
10.7722 -3.4 0.0
13.9128 -3.4 0.0
17.9691 -3.4 0.0
23.2079 -3.4 0.0
29.9742 -3.4 0.0
38.7132 -3.4 0.0
50 -3.4 0.0
0 -3.6 0.0
0.25 -3.6 0.0
0.5 -3.6 0.0
0.75 -3.6 0.0
1 -3.6 0.0
1.25 -3.6 0.0
1.5 -3.6 0.0
1.75 -3.6 0.0
2 -3.6 0.0
2.25 -3.6 0.0
2.5 -3.6 0.0
2.75 -3.6 0.0
3 -3.6 0.0
3.25 -3.6 0.0
3.5 -3.6 0.0
3.75 -3.6 0.0
4 -3.6 0.0
4.25 -3.6 0.0
4.5 -3.6 0.0
4.75 -3.6 0.0
5 -3.6 0.0
5.7289 -3.6 0.0
6.4577 -3.6 0.0
7.3991 -3.6 0.0
8.3405 -3.6 0.0
9.5563 -3.6 0.0
10.7722 -3.6 0.0
12.3425 -3.6 0.0
13.9128 -3.6 0.0
15.9409 -3.6 0.0
17.9691 -3.6 0.0
20.5885 -3.6 0.0
23.2079 -3.6 0.0
26.5911 -3.6 0.0
29.9742 -3.6 0.0
34.3437 -3.6 0.0
38.7132 -3.6 0.0
44.3566 -3.6 0.0
50 -3.6 0.0
0 -3.8 0.0
0.5 -3.8 0.0
1 -3.8 0.0
1.5 -3.8 0.0
2 -3.8 0.0
2.5 -3.8 0.0
3 -3.8 0.0
3.5 -3.8 0.0
4 -3.8 0.0
4.5 -3.8 0.0
5 -3.8 0.0
6.4577 -3.8 0.0
8.3405 -3.8 0.0
10.7722 -3.8 0.0
13.9128 -3.8 0.0
17.9691 -3.8 0.0
23.2079 -3.8 0.0
29.9742 -3.8 0.0
38.7132 -3.8 0.0
50 -3.8 0.0
0 -4 0.0
0.25 -4 0.0
0.5 -4 0.0
0.75 -4 0.0
1 -4 0.0
1.25 -4 0.0
1.5 -4 0.0
1.75 -4 0.0
2 -4 0.0
2.25 -4 0.0
2.5 -4 0.0
2.75 -4 0.0
3 -4 0.0
3.25 -4 0.0
3.5 -4 0.0
3.75 -4 0.0
4 -4 0.0
4.25 -4 0.0
4.5 -4 0.0
4.75 -4 0.0
5 -4 0.0
5.7289 -4 0.0
6.4577 -4 0.0
7.3991 -4 0.0
8.3405 -4 0.0
9.5563 -4 0.0
10.7722 -4 0.0
12.3425 -4 0.0
13.9128 -4 0.0
15.9409 -4 0.0
17.9691 -4 0.0
20.5885 -4 0.0
23.2079 -4 0.0
26.5911 -4 0.0
29.9742 -4 0.0
34.3437 -4 0.0
38.7132 -4 0.0
44.3566 -4 0.0
50 -4 0.0
0 -4.55 0.0
0.5 -4.55 0.0
1 -4.55 0.0
1.5 -4.55 0.0
2 -4.55 0.0
2.5 -4.55 0.0
3 -4.55 0.0
3.5 -4.55 0.0
4 -4.55 0.0
4.5 -4.55 0.0
5 -4.55 0.0
6.4577 -4.55 0.0
8.3405 -4.55 0.0
10.7722 -4.55 0.0
13.9128 -4.55 0.0
17.9691 -4.55 0.0
23.2079 -4.55 0.0
29.9742 -4.55 0.0
38.7132 -4.55 0.0
50 -4.55 0.0
0 -5.1 0.0
0.25 -5.1 0.0
0.5 -5.1 0.0
0.75 -5.1 0.0
1 -5.1 0.0
1.25 -5.1 0.0
1.5 -5.1 0.0
1.75 -5.1 0.0
2 -5.1 0.0
2.25 -5.1 0.0
2.5 -5.1 0.0
2.75 -5.1 0.0
3 -5.1 0.0
3.25 -5.1 0.0
3.5 -5.1 0.0
3.75 -5.1 0.0
4 -5.1 0.0
4.25 -5.1 0.0
4.5 -5.1 0.0
4.75 -5.1 0.0
5 -5.1 0.0
5.7289 -5.1 0.0
6.4577 -5.1 0.0
7.3991 -5.1 0.0
8.3405 -5.1 0.0
9.5563 -5.1 0.0
10.7722 -5.1 0.0
12.3425 -5.1 0.0
13.9128 -5.1 0.0
15.9409 -5.1 0.0
17.9691 -5.1 0.0
20.5885 -5.1 0.0
23.2079 -5.1 0.0
26.5911 -5.1 0.0
29.9742 -5.1 0.0
34.3437 -5.1 0.0
38.7132 -5.1 0.0
44.3566 -5.1 0.0
50 -5.1 0.0
0 -5.65 0.0
0.5 -5.65 0.0
1 -5.65 0.0
1.5 -5.65 0.0
2 -5.65 0.0
2.5 -5.65 0.0
3 -5.65 0.0
3.5 -5.65 0.0
4 -5.65 0.0
4.5 -5.65 0.0
5 -5.65 0.0
6.4577 -5.65 0.0
8.3405 -5.65 0.0
10.7722 -5.65 0.0
13.9128 -5.65 0.0
17.9691 -5.65 0.0
23.2079 -5.65 0.0
29.9742 -5.65 0.0
38.7132 -5.65 0.0
50 -5.65 0.0
0 -6.2 0.0
0.25 -6.2 0.0
0.5 -6.2 0.0
0.75 -6.2 0.0
1 -6.2 0.0
1.25 -6.2 0.0
1.5 -6.2 0.0
[...]
POINT_DATA 1809
SCALARS Displacement_R double 1
LOOKUP_TABLE default
0
-1.29092e-05
-2.57788e-05
-3.85762e-05
-5.12612e-05
-6.37993e-05
-7.61542e-05
-8.82916e-05
-0.000100178
-0.000111782
-0.000123072
-0.000134023
-0.000144608
-0.000154802
-0.000164576
-0.000173945
-0.000182857
-0.000191507
-0.000199557
-0.000206699
-0.000212291
-0.000218746
-0.000219857
-0.000219783
-0.000216579
-0.00020953
-0.000200493
-0.000188214
-0.000175797
-0.000161232
-0.000147594
-0.000132112
-0.000117493
-0.000100305
-8.35803e-05
-6.34833e-05
-4.40264e-05
-2.12268e-05
0
0
-2.25826e-05
-4.48864e-05
-6.66334e-05
-8.75511e-05
-0.000107372
-0.000125829
-0.000142633
-0.000157421
-0.000169244
-0.000177544
-0.000194507
-0.000194731
-0.000182536
-0.000161648
-0.000136852
-0.000109666
-7.8402e-05
-4.14452e-05
0
0
-9.7864e-06
-1.95377e-05
-2.92254e-05
-3.88131e-05
-4.82703e-05
-5.75619e-05
-6.66565e-05
-7.55186e-05
-8.41159e-05
-9.24099e-05
-0.000100367
-0.000107941
-0.000115095
-0.000121757
-0.000127878
-0.000133333
-0.00013808
-0.000141877
-0.00014474
-0.000148523
-0.000161465
-0.000169566
-0.000173379
-0.000173555
-0.000170244
-0.000164817
-0.000156418
-0.000147606
-0.000136586
-0.000126159
-0.000113714
-0.00010187
-8.73978e-05
-7.32424e-05
-5.57876e-05
-3.88709e-05
-1.873e-05
0
0
-1.66345e-05
-3.30234e-05
-4.89169e-05
-6.4059e-05
-7.81777e-05
-9.09703e-05
-0.000102066
-0.00011099
-0.000117381
-0.00012348
-0.000145778
-0.000152839
-0.000147342
-0.000133633
-0.00011548
-9.4076e-05
-6.80795e-05
-3.62901e-05
0
0
-6.9468e-06
-1.38632e-05
-2.07248e-05
-2.7499e-05
-3.41597e-05
-4.06741e-05
-4.70147e-05
-5.31461e-05
-5.90398e-05
-6.4655e-05
-6.99603e-05
-7.49063e-05
-7.94684e-05
-8.35843e-05
-8.72159e-05
-9.03228e-05
-9.29817e-05
-9.54075e-05
-9.79533e-05
-0.000101082
-0.000112818
-0.000123037
-0.000129918
-0.000132587
-0.000132498
-0.000130096
-0.000125325
-0.000119756
-0.000112273
-0.000104849
-9.55092e-05
-8.63124e-05
-7.46154e-05
-6.29344e-05
-4.81609e-05
-3.37161e-05
-1.62563e-05
0
0
-1.1214e-05
-2.22211e-05
-3.28082e-05
-4.27526e-05
-5.18153e-05
-5.97409e-05
-6.62723e-05
-7.12922e-05
-7.53538e-05
-8.04013e-05
-0.000101354
-0.000112872
-0.000113085
-0.000105981
-9.42599e-05
-7.85697e-05
-5.77974e-05
-3.11416e-05
0
0
-4.35006e-06
-8.67557e-06
-1.2957e-05
-1.71678e-05
-2.12871e-05
-2.52876e-05
-2.91475e-05
-3.28377e-05
-3.6336e-05
-3.96114e-05
-4.26426e-05
-4.54021e-05
-4.78765e-05
-5.00541e-05
-5.19441e-05
-5.36276e-05
-5.51796e-05
-5.68388e-05
-5.88205e-05
-6.12743e-05
-7.08884e-05
-8.06428e-05
-8.9001e-05
-9.35321e-05
-9.60204e-05
-9.62704e-05
-9.48156e-05
-9.22925e-05
-8.82373e-05
-8.37175e-05
-7.74664e-05
-7.08559e-05
-6.1936e-05
-5.26772e-05
-4.05905e-05
-2.85736e-05
-1.38016e-05
0
0
-6.23635e-06
-1.23164e-05
-1.8079e-05
-2.33585e-05
-2.79874e-05
-3.18189e-05
-3.47906e-05
-3.71052e-05
-3.951e-05
-4.32216e-05
-6.08155e-05
-7.4617e-05
-7.96452e-05
-7.86979e-05
-7.32219e-05
-6.31683e-05
-4.75696e-05
-2.60084e-05
0
0
-1.94978e-06
-3.88265e-06
-5.78533e-06
-7.63941e-06
-9.43093e-06
-1.11414e-05
-1.27567e-05
-1.42586e-05
-1.56344e-05
-1.6869e-05
-1.79543e-05
-1.88871e-05
-1.9672e-05
-2.0338e-05
-2.09207e-05
-2.15097e-05
-2.21935e-05
-2.31146e-05
-2.43969e-05
-2.61008e-05
-3.3381e-05
-4.17155e-05
-5.0255e-05
-5.6002e-05
-6.05692e-05
-6.31748e-05
-6.4801e-05
-6.51811e-05
-6.44514e-05
-6.27703e-05
-5.9571e-05
-5.55081e-05
-4.93481e-05
-4.24776e-05
-3.30688e-05
-2.34494e-05
-1.13626e-05
0
0
-1.6004e-06
-3.10864e-06
-4.43144e-06
-5.47848e-06
-6.17494e-06
-6.49528e-06
-6.53482e-06
-6.62796e-06
-7.41742e-06
-9.62796e-06
-2.3206e-05
-3.76856e-05
-4.68507e-05
-5.17444e-05
-5.23641e-05
-4.78748e-05
-3.73998e-05
-2.08949e-05
0
0
3.0954e-07
6.2661e-07
9.5694e-07
1.30868e-06
1.68748e-06
2.10094e-06
2.55382e-06
3.0516e-06
3.59632e-06
4.18725e-06
4.81974e-06
5.47842e-06
6.14474e-06
6.77604e-06
7.33039e-06
7.73111e-06
7.90788e-06
7.77667e-06
7.2692e-06
6.3562e-06
1.44116e-06
-5.1481e-06
-1.31294e-05
-1.95779e-05
-2.58773e-05
-3.06391e-05
-3.51896e-05
-3.83754e-05
-4.08918e-05
-4.19996e-05
-4.18136e-05
-4.02675e-05
-3.68441e-05
-3.23363e-05
-2.55903e-05
-1.83463e-05
-8.93716e-06
0
0
2.81502e-06
5.64636e-06
8.50793e-06
1.14044e-05
1.43151e-05
1.71616e-05
1.97565e-05
2.17509e-05
2.26592e-05
2.20467e-05
1.26068e-05
-1.64369e-06
-1.45273e-05
-2.50713e-05
-3.16773e-05
-3.26865e-05
-2.72875e-05
-1.58036e-05
0
0
2.49319e-06
4.9832e-06
7.46718e-06
9.94164e-06
1.24029e-05
1.48467e-05
1.72678e-05
1.96588e-05
2.20113e-05
2.43115e-05
2.65441e-05
2.86834e-05
3.07026e-05
3.25592e-05
3.42118e-05
3.56037e-05
3.66816e-05
3.73974e-05
3.77114e-05
3.76111e-05
3.50025e-05
3.01843e-05
2.30578e-05
1.61886e-05
8.33965e-06
1.51346e-06
-5.88585e-06
-1.18243e-05
-1.75351e-05
-2.13944e-05
-2.41864e-05
-2.51301e-05
-2.44174e-05
-2.2252e-05
-1.81505e-05
-1.32664e-05
-6.52299e-06
0
0
7.1499e-06
1.42326e-05
2.11761e-05
2.78962e-05
3.42825e-05
4.01754e-05
4.53397e-05
4.94545e-05
5.21641e-05
5.3204e-05
4.77294e-05
3.39778e-05
1.75042e-05
1.37298e-06
-1.11504e-05
-1.75991e-05
-1.72313e-05
-1.07361e-05
0
0
4.67479e-06
9.33495e-06
1.39685e-05
1.85596e-05
2.30949e-05
2.75578e-05
3.19329e-05
3.62011e-05
4.03437e-05
4.43365e-05
4.81557e-05
5.17696e-05
5.51469e-05
5.82486e-05
6.10361e-05
6.34685e-05
6.55049e-05
6.71181e-05
6.82852e-05
6.90027e-05
6.85737e-05
6.53657e-05
5.90486e-05
5.17814e-05
4.23746e-05
3.3464e-05
2.32062e-05
1.45239e-05
5.64227e-06
-9.43268e-07
-6.68108e-06
-1.00911e-05
-1.20617e-05
-1.22228e-05
-1.07449e-05
-8.21099e-06
-4.11808e-06
0
0
1.15584e-05
2.29633e-05
3.40545e-05
4.46596e-05
5.45838e-05
6.35992e-05
7.14381e-05
7.78053e-05
8.24294e-05
8.51457e-05
8.32322e-05
6.96765e-05
4.94242e-05
2.76395e-05
9.22735e-06
-2.60872e-06
-7.22994e-06
-5.6942e-06
0
0
6.93342e-06
1.38407e-05
2.07007e-05
2.74852e-05
3.41712e-05
4.07299e-05
4.71361e-05
5.3359e-05
5.93701e-05
6.5136e-05
7.06245e-05
7.57991e-05
8.06237e-05
8.50617e-05
8.90753e-05
9.26329e-05
9.56997e-05
9.82615e-05
0.000100302
0.000101827
0.000103377
0.000101458
9.56072e-05
8.77049e-05
7.65221e-05
6.53916e-05
5.21808e-05
4.07192e-05
2.86643e-05
1.93635e-05
1.07112e-05
4.85229e-06
2.30094e-07
-2.24814e-06
-3.36844e-06
-3.1822e-06
-1.72024e-06
0
0
1.62022e-05
3.2167e-05
4.76483e-05
6.23872e-05
7.61055e-05
8.85046e-05
9.92741e-05
0.000108116
0.000114792
0.000119183
0.00012018
0.00010596
8.14066e-05
5.3774e-05
2.94621e-05
1.2285e-05
2.71539e-06
-6.80803e-07
0
0
9.3498e-06
1.86628e-05
2.7909e-05
3.70491e-05
4.60502e-05
5.48725e-05
6.34804e-05
7.18318e-05
7.98882e-05
8.76057e-05
9.49427e-05
0.000101855
0.0001083
0.000114237
0.000119626
0.000124436
0.000128633
0.000132204
0.000135137
0.000137439
0.000140672
0.000139536
0.000133502
0.000124464
0.000111068
9.74645e-05
8.11295e-05
6.68027e-05
5.15573e-05
3.95285e-05
2.80024e-05
1.96978e-05
1.24676e-05
7.66898e-06
3.98514e-06
1.81614e-06
6.73134e-07
0
0
2.12418e-05
4.21715e-05
6.24648e-05
8.17794e-05
9.97498e-05
0.000115991
0.000130115
0.000141772
0.000150698
0.000156761
0.000159682
0.000143316
0.000113594
7.97966e-05
4.95418e-05
2.70707e-05
1.25969e-05
4.29831e-06
0
0
1.20018e-05
2.39574e-05
3.5831e-05
4.75715e-05
5.91402e-05
7.04839e-05
8.15609e-05
9.2314e-05
0.000102697
0.000112651
0.000122123
0.000131056
0.000139393
0.000147084
0.000154073
0.000160326
0.000165798
0.000170481
0.00017435
0.000177408
0.000181796
0.000180751
0.000173492
0.000162519
0.000146297
0.000129798
0.000110157
9.27729e-05
7.43632e-05
5.95249e-05
4.52164e-05
3.44253e-05
2.46673e-05
1.7516e-05
1.13256e-05
6.77632e-06
3.06548e-06
0
0
2.35143e-05
4.66697e-05
6.91003e-05
9.04309e-05
0.000110277
0.000128255
0.000143997
0.000157191
0.000167613
0.000175166
0.000182189
0.000169128
0.000139897
0.000103971
7.0342e-05
4.41224e-05
2.52472e-05
1.12406e-05
0
0
1.14072e-05
2.27664e-05
3.40411e-05
4.51783e-05
5.61413e-05
6.68771e-05
7.73497e-05
8.75059e-05
9.73107e-05
0.000106713
0.000115679
0.000124162
0.000132131
0.00013955
0.000146391
0.000152632
0.000158249
0.000163236
0.000167593
0.00017133
0.000178715
0.000181462
0.000179537
0.000173209
0.000161536
0.000148022
0.000130441
0.000114089
9.5777e-05
8.07464e-05
6.5435e-05
5.36948e-05
4.20142e-05
3.29207e-05
2.34424e-05
1.56684e-05
7.30386e-06
0
0
2.183e-05
4.33231e-05
6.41426e-05
8.39597e-05
0.000102459
0.000119347
0.000134368
0.000147322
0.000158078
0.000166591
0.000179302
0.000175453
0.000154506
0.000123168
9.06621e-05
6.30733e-05
4.04863e-05
2.00233e-05
0
0
1.043e-05
2.0818e-05
3.11302e-05
4.13232e-05
5.13617e-05
6.12057e-05
7.08198e-05
8.0167e-05
8.92132e-05
9.79257e-05
0.000106273
0.000114227
0.000121761
0.000128854
0.000135483
0.000141638
0.000147302
0.000152473
0.000157144
0.000161318
0.000170664
0.000176187
0.000178395
0.000176314
0.000169428
0.000159699
0.000145625
0.00013146
0.000114743
0.000100282
8.48956e-05
7.23941e-05
5.91891e-05
4.80386e-05
3.55025e-05
2.43638e-05
1.15274e-05
0
0
1.97927e-05
3.93015e-05
5.82462e-05
7.63591e-05
9.33911e-05
0.000109119
0.000123354
0.00013595
0.000146814
0.000155899
0.000172568
0.00017629
0.000163957
0.000139123
0.000109644
8.16747e-05
5.55993e-05
2.86991e-05
0
0
9.41839e-06
1.88026e-05
2.81248e-05
3.73502e-05
4.64496e-05
5.53918e-05
6.41477e-05
7.26892e-05
8.09887e-05
8.90219e-05
9.67637e-05
0.000104194
0.000111292
0.000118041
0.000124426
0.000130436
0.000136058
0.00014129
0.000146126
0.000150566
0.000161248
0.000168766
0.000174213
0.000175713
0.000173296
0.00016754
0.000157541
0.000146331
0.000132053
0.000118864
0.000103925
9.09771e-05
7.63542e-05
6.31906e-05
4.75646e-05
3.30395e-05
1.57472e-05
0
0
1.78827e-05
3.55385e-05
5.27445e-05
6.92895e-05
8.49787e-05
9.96393e-05
0.000113126
0.000125324
0.000136155
0.000145575
0.000165076
0.00017494
0.00017076
0.000153263
0.000128004
0.000100322
7.08337e-05
3.73982e-05
0
0
8.53866e-06
1.70504e-05
2.55131e-05
3.38998e-05
4.21871e-05
5.03509e-05
5.83679e-05
6.62169e-05
7.38757e-05
8.1326e-05
8.85475e-05
9.55253e-05
0.000102242
0.000108686
0.000114842
0.000120705
0.000126261
0.000131509
0.000136441
0.000141057
0.000152689
0.000161715
0.000169735
0.000174227
0.000175801
0.000173846
0.000168035
0.000160092
0.000148718
0.000137187
0.00012303
0.000109779
9.37749e-05
7.85522e-05
5.97536e-05
4.17807e-05
1.99952e-05
0
0
1.63275e-05
3.24773e-05
4.82753e-05
6.35563e-05
7.81682e-05
9.19753e-05
0.000104862
0.000116735
0.000127527
0.000137194
0.000158898
0.000173844
0.000177074
0.000167012
0.000146503
0.000119386
8.63727e-05
4.62032e-05
0
0
7.87071e-06
1.57205e-05
2.35319e-05
3.12841e-05
3.89585e-05
4.65367e-05
5.40001e-05
6.13324e-05
6.85158e-05
7.55362e-05
8.23772e-05
8.90273e-05
9.54718e-05
0.000101702
0.000107705
0.000113475
0.000119003
0.000124284
0.000129312
0.000134086
0.000146518
0.000156793
0.000166963
0.000174006
0.000179111
0.000180654
0.000178859
0.000174192
0.000165826
0.00015607
0.000142772
0.000129204
0.000111722
9.43135e-05
7.21921e-05
5.06672e-05
2.4304e-05
0
0
1.52465e-05
3.0354e-05
4.5186e-05
5.96128e-05
7.3514e-05
8.67814e-05
9.93211e-05
0.000111055
0.000121924
0.000131884
0.000155583
0.000174944
0.000184833
0.000181827
0.000165997
0.000139286
0.000102407
5.51914e-05
0
0
7.46373e-06
1.49109e-05
2.23279e-05
2.96981e-05
3.70069e-05
4.42398e-05
5.13819e-05
5.84203e-05
6.53406e-05
7.21317e-05
7.878e-05
8.52762e-05
9.16081e-05
9.77684e-05
0.000103746
0.000109536
0.00011513
0.000120523
0.000125709
0.000130687
0.000143967
0.000155427
0.000167544
0.000176861
0.000185121
0.000189822
0.000191712
0.000190092
0.000184534
0.000176397
0.000163768
0.000149685
0.000130476
0.000110665
8.50007e-05
5.97741e-05
2.8706e-05
0
0
1.47313e-05
2.93514e-05
4.37509e-05
5.78251e-05
7.14764e-05
8.46155e-05
9.71637e-05
0.000109054
0.00012023
0.000130651
0.000156507
0.000179975
0.000195854
0.000199185
0.000187398
0.000160468
0.000119127
6.44359e-05
0
0
7.3651e-06
1.47168e-05
2.20437e-05
2.93324e-05
3.65708e-05
4.37469e-05
5.08485e-05
5.78649e-05
6.47839e-05
7.15963e-05
7.82906e-05
8.48589e-05
9.12905e-05
9.7579e-05
0.000103715
0.000109693
0.000115505
0.000121147
0.000126613
0.0001319
0.00014625
0.000159002
0.000173055
0.000184511
0.000195647
0.000203162
0.000208289
0.000209291
0.000206053
0.000199107
0.00018667
0.000171675
0.000150324
0.000127796
9.82953e-05
6.91724e-05
3.32325e-05
0
0
1.48898e-05
2.96857e-05
4.42947e-05
5.86278e-05
7.26007e-05
8.61357e-05
9.91624e-05
0.000111619
0.000123454
0.000134623
0.000163124
0.000190704
0.000211983
0.000220615
0.000211666
0.000183388
0.000136718
7.40057e-05
0
0
7.63932e-06
1.52667e-05
2.28718e-05
3.04435e-05
3.79704e-05
4.54425e-05
5.2848e-05
6.01783e-05
6.74215e-05
7.457e-05
8.16123e-05
8.85423e-05
9.53486e-05
0.000102027
0.000108566
0.000114963
0.000121207
0.000127298
0.000133226
0.00013899
0.000154795
0.0001691
0.000185238
0.000198819
0.000212613
0.000222583
0.000230368
0.000233357
0.00023165
0.000225174
0.000212152
0.00019563
0.000171545
0.000145887
0.000112186
7.89286e-05
3.79142e-05
0
0
1.58779e-05
3.16681e-05
4.72833e-05
6.26392e-05
7.76554e-05
9.22568e-05
0.000106375
0.000119947
0.000132919
0.000145248
0.000177196
0.00020913
0.000235217
0.000247736
0.000239796
0.000208506
0.000155359
8.39646e-05
0
0
8.3812e-06
1.67508e-05
2.50992e-05
3.34133e-05
4.16831e-05
4.98969e-05
5.80445e-05
6.61153e-05
7.40991e-05
8.19863e-05
8.9767e-05
9.74325e-05
0.000104974
0.000112383
0.000119651
0.000126772
0.000133737
0.000140541
0.00014718
0.000153648
0.000171481
0.000187721
0.000206239
0.00022198
0.000238249
0.000250208
0.000259896
0.000263969
0.000262648
0.000255612
0.000240876
0.00022201
0.000194404
0.000165116
0.000126774
8.91041e-05
4.27807e-05
0
0
1.79337e-05
3.5773e-05
5.34212e-05
7.0787e-05
8.77828e-05
0.000104326
0.000120341
0.000135758
0.000150517
0.000164558
0.000201062
0.000237756
0.000267896
0.000282315
0.000272779
0.00023621
0.000175173
9.43477e-05
0
0
9.74134e-06
1.94689e-05
2.91685e-05
3.88295e-05
4.84353e-05
5.79785e-05
6.74398e-05
7.68149e-05
8.60826e-05
9.52418e-05
0.00010427
0.000113168
0.000121913
0.00013051
0.000138934
0.000147192
0.00015526
0.000163148
0.000170831
0.000178316
0.000198866
0.000217619
0.000238831
0.000256872
0.000275227
0.000288637
0.00029904
0.000302999
0.000300437
0.000291381
0.000273538
0.000251126
0.000219199
0.000185547
0.000142188
9.97067e-05
4.78709e-05
0
0
1.32199e-05
2.63889e-05
3.94541e-05
5.2365e-05
6.50724e-05
7.75296e-05
8.96923e-05
0.000101519
0.000112973
0.000124019
0.000153645
0.000185563
0.000215562
0.000236554
0.000239763
0.00021797
0.000168495
9.33965e-05
0
0
4.54302e-06
9.08372e-06
1.36169e-05
1.81431e-05
2.2654e-05
2.71532e-05
3.16295e-05
3.60896e-05
4.05195e-05
4.49286e-05
4.93005e-05
5.3647e-05
5.79496e-05
6.22223e-05
6.64448e-05
7.06329e-05
7.47651e-05
7.88585e-05
8.28895e-05
8.68784e-05
9.81191e-05
0.000108926
0.000121893
0.00013398
0.000147748
0.000159806
0.000172258
0.000181676
0.000189208
0.000192118
0.000190164
0.00018258
0.000167228
0.000146814
0.000116597
8.37207e-05
4.08678e-05
0
0
6.70112e-06
1.3386e-05
2.00396e-05
2.66467e-05
3.31924e-05
3.96618e-05
4.60406e-05
5.2315e-05
5.84715e-05
6.44975e-05
8.12079e-05
0.000100598
0.000121394
0.000140529
0.000152466
0.000149515
0.000124111
7.25753e-05
0
0
2.46612e-06
4.93082e-06
7.39359e-06
9.85251e-06
1.23071e-05
1.47553e-05
1.71969e-05
1.96297e-05
2.20538e-05
2.44666e-05
2.68685e-05
2.92569e-05
3.16322e-05
3.39917e-05
3.63361e-05
3.86625e-05
4.09718e-05
4.32611e-05
4.55314e-05
4.77795e-05
5.421e-05
6.04243e-05
6.81087e-05
7.5364e-05
8.40375e-05
9.18926e-05
0.000100683
0.000107997
0.000115027
0.000119599
0.000121742
0.000120269
0.000113545
0.000102491
8.35965e-05
6.12387e-05
3.03727e-05
0
0
3.7234e-06
7.44055e-06
1.1145e-05
1.48305e-05
1.84908e-05
2.21198e-05
2.57113e-05
2.92596e-05
3.27588e-05
3.62033e-05
4.58839e-05
5.74325e-05
7.04212e-05
8.3477e-05
9.36263e-05
9.57829e-05
8.32676e-05
5.06543e-05
0
0
1.40311e-06
2.80573e-06
4.20719e-06
5.60722e-06
7.00484e-06
8.4001e-06
9.79177e-06
1.11801e-05
1.25637e-05
1.39431e-05
1.53165e-05
1.66848e-05
1.8046e-05
1.94011e-05
2.0748e-05
2.20879e-05
2.34186e-05
2.47413e-05
2.60537e-05
2.73573e-05
3.10924e-05
3.47369e-05
3.92687e-05
4.36113e-05
4.88669e-05
5.37347e-05
5.93361e-05
6.41749e-05
6.91604e-05
7.27555e-05
7.52477e-05
7.54851e-05
7.26089e-05
6.66864e-05
5.53697e-05
4.11597e-05
2.06351e-05
0
0
2.13901e-06
4.27492e-06
6.40471e-06
8.52536e-06
1.06339e-05
1.27272e-05
1.48025e-05
1.68568e-05
1.88873e-05
2.08913e-05
2.65561e-05
3.3402e-05
4.12771e-05
4.95235e-05
5.65285e-05
5.92079e-05
5.29256e-05
3.30509e-05
0
0
8.12887e-07
1.62547e-06
2.43756e-06
3.24881e-06
4.059e-06
4.86781e-06
5.67502e-06
6.48032e-06
7.28349e-06
8.08421e-06
8.88226e-06
9.67735e-06
1.04692e-05
1.12576e-05
1.20423e-05
1.2823e-05
1.35995e-05
1.43714e-05
1.51386e-05
1.59009e-05
1.80924e-05
2.02336e-05
2.29144e-05
2.54913e-05
2.8642e-05
3.15819e-05
3.50185e-05
3.80398e-05
4.12443e-05
4.36725e-05
4.55562e-05
4.61093e-05
4.48364e-05
4.16175e-05
3.49399e-05
2.62269e-05
1.32379e-05
0
0
1.24374e-06
2.4859e-06
3.72489e-06
4.95911e-06
6.18701e-06
7.40701e-06
8.61757e-06
9.81716e-06
1.10043e-05
1.21774e-05
1.55044e-05
1.95518e-05
2.42606e-05
2.92929e-05
3.37564e-05
3.58303e-05
3.25617e-05
2.06707e-05
0
0
4.74499e-07
9.48854e-07
1.42291e-06
1.89655e-06
2.36957e-06
2.8419e-06
3.31331e-06
3.78376e-06
4.25298e-06
4.72095e-06
5.18741e-06
5.65235e-06
6.11547e-06
6.5768e-06
7.03602e-06
7.49318e-06
7.94794e-06
8.40037e-06
8.8501e-06
9.29724e-06
1.05836e-05
1.18434e-05
1.34233e-05
1.49476e-05
1.68179e-05
1.85731e-05
2.06401e-05
2.24748e-05
2.44526e-05
2.59846e-05
2.72401e-05
2.77088e-05
2.71169e-05
2.53276e-05
2.14093e-05
1.61687e-05
8.19548e-06
0
0
7.2752e-07
1.45416e-06
2.17906e-06
2.90133e-06
3.62012e-06
4.33457e-06
5.04382e-06
5.74702e-06
6.44335e-06
7.13198e-06
9.08807e-06
1.14763e-05
1.42722e-05
1.72939e-05
2.00363e-05
2.14303e-05
1.9666e-05
1.26103e-05
0
0
2.78476e-07
5.56866e-07
8.35097e-07
1.11308e-06
1.39074e-06
1.66799e-06
1.94475e-06
2.22095e-06
2.49648e-06
2.7713e-06
3.04529e-06
3.3184e-06
3.59052e-06
3.86161e-06
4.13156e-06
4.40031e-06
4.66776e-06
4.93386e-06
5.19849e-06
5.46163e-06
6.21933e-06
6.96181e-06
7.89464e-06
8.79566e-06
9.90429e-06
1.09472e-05
1.21808e-05
1.32814e-05
1.44779e-05
1.54168e-05
1.62071e-05
1.65346e-05
1.62419e-05
1.52267e-05
1.29238e-05
9.79708e-06
4.9785e-06
0
0
4.2863e-07
8.56765e-07
1.28391e-06
1.70957e-06
2.13325e-06
2.55447e-06
2.97273e-06
3.38756e-06
3.79848e-06
4.20503e-06
5.36095e-06
6.77507e-06
8.43627e-06
1.02428e-05
1.19036e-05
1.27883e-05
1.18033e-05
7.61448e-06
0
0
1.64917e-07
3.29786e-07
4.94562e-07
6.59199e-07
8.23643e-07
9.87858e-07
1.15178e-06
1.31539e-06
1.47861e-06
1.64142e-06
1.80375e-06
1.96558e-06
2.12683e-06
2.2875e-06
2.44749e-06
2.60681e-06
2.76536e-06
2.92315e-06
3.08008e-06
3.23616e-06
3.68568e-06
4.12647e-06
4.6806e-06
5.2164e-06
5.87649e-06
6.49842e-06
7.23597e-06
7.89583e-06
8.6169e-06
9.18636e-06
9.67345e-06
9.88536e-06
9.73211e-06
9.14342e-06
7.78001e-06
5.91079e-06
3.00831e-06
0
0
2.5473e-07
5.09171e-07
7.63035e-07
1.01603e-06
1.26788e-06
1.5183e-06
1.767e-06
2.01369e-06
2.25812e-06
2.49999e-06
3.18807e-06
4.03079e-06
5.02273e-06
6.10532e-06
7.10771e-06
7.6556e-06
7.08985e-06
4.59014e-06
0
0
9.76511e-08
1.95274e-07
2.92842e-07
3.90329e-07
4.87705e-07
5.84946e-07
6.8202e-07
7.78906e-07
8.75569e-07
9.71991e-07
1.06814e-06
1.16399e-06
1.2595e-06
1.35467e-06
1.44946e-06
1.54384e-06
1.63779e-06
1.73128e-06
1.82428e-06
1.91677e-06
2.18325e-06
2.44459e-06
2.77333e-06
3.09129e-06
3.48338e-06
3.85305e-06
4.29213e-06
4.6855e-06
5.11666e-06
5.45835e-06
5.75323e-06
5.88477e-06
5.8011e-06
5.45664e-06
4.65008e-06
3.53704e-06
1.80194e-06
0
0
1.46658e-07
2.93152e-07
4.39318e-07
5.84993e-07
7.30013e-07
8.74216e-07
1.01744e-06
1.15953e-06
1.30032e-06
1.43966e-06
1.83617e-06
2.32208e-06
2.89463e-06
3.52068e-06
4.10263e-06
4.42513e-06
4.10589e-06
2.66361e-06
0
0
5.11841e-08
1.02352e-07
1.53494e-07
2.04591e-07
2.55632e-07
3.06601e-07
3.57485e-07
4.08268e-07
4.58939e-07
5.09479e-07
5.5988e-07
6.10122e-07
6.60197e-07
7.10084e-07
7.59777e-07
8.09254e-07
8.58511e-07
9.07523e-07
9.56288e-07
1.00478e-06
1.14456e-06
1.28155e-06
1.45408e-06
1.62076e-06
1.82674e-06
2.02054e-06
2.25163e-06
2.45783e-06
2.68562e-06
2.86462e-06
3.02228e-06
3.09065e-06
3.0513e-06