# vtk DataFile Version 2.0
./vtk
ASCII

DATASET UNSTRUCTURED_GRID
POINTS 889 double
0 0 0.0
0.5 0 0.0
1 0 0.0
1.5 0 0.0
2 0 0.0
2.5 0 0.0
3 0 0.0
3.5 0 0.0
4 0 0.0
4.5 0 0.0
5 0 0.0
6.9457 0 0.0
8.8914 0 0.0
12.3514 0 0.0
15.8114 0 0.0
21.9642 0 0.0
28.1171 0 0.0
39.0585 0 0.0
50 0 0.0
0 -0.5 0.0
1 -0.5 0.0
2 -0.5 0.0
3 -0.5 0.0
4 -0.5 0.0
5 -0.5 0.0
8.8914 -0.5 0.0
15.8114 -0.5 0.0
28.1171 -0.5 0.0
50 -0.5 0.0
0 -1 0.0
0.5 -1 0.0
1 -1 0.0
1.5 -1 0.0
2 -1 0.0
2.5 -1 0.0
3 -1 0.0
3.5 -1 0.0
4 -1 0.0
4.5 -1 0.0
5 -1 0.0
6.9457 -1 0.0
8.8914 -1 0.0
12.3514 -1 0.0
15.8114 -1 0.0
21.9642 -1 0.0
28.1171 -1 0.0
39.0585 -1 0.0
50 -1 0.0
0 -1.5 0.0
1 -1.5 0.0
2 -1.5 0.0
3 -1.5 0.0
4 -1.5 0.0
5 -1.5 0.0
8.8914 -1.5 0.0
15.8114 -1.5 0.0
28.1171 -1.5 0.0
50 -1.5 0.0
0 -2 0.0
0.5 -2 0.0
1 -2 0.0
1.5 -2 0.0
2 -2 0.0
2.5 -2 0.0
3 -2 0.0
3.5 -2 0.0
4 -2 0.0
4.5 -2 0.0
5 -2 0.0
6.9457 -2 0.0
8.8914 -2 0.0
12.3514 -2 0.0
15.8114 -2 0.0
21.9642 -2 0.0
28.1171 -2 0.0
39.0585 -2 0.0
50 -2 0.0
0 -2.5 0.0
1 -2.5 0.0
2 -2.5 0.0
3 -2.5 0.0
4 -2.5 0.0
5 -2.5 0.0
8.8914 -2.5 0.0
15.8114 -2.5 0.0
28.1171 -2.5 0.0
50 -2.5 0.0
0 -3 0.0
0.5 -3 0.0
1 -3 0.0
1.5 -3 0.0
2 -3 0.0
2.5 -3 0.0
3 -3 0.0
3.5 -3 0.0
4 -3 0.0
4.5 -3 0.0
5 -3 0.0
6.9457 -3 0.0
8.8914 -3 0.0
12.3514 -3 0.0
15.8114 -3 0.0
21.9642 -3 0.0
28.1171 -3 0.0
39.0585 -3 0.0
50 -3 0.0
0 -3.5 0.0
1 -3.5 0.0
2 -3.5 0.0
3 -3.5 0.0
4 -3.5 0.0
5 -3.5 0.0
8.8914 -3.5 0.0
15.8114 -3.5 0.0
28.1171 -3.5 0.0
50 -3.5 0.0
0 -4 0.0
0.5 -4 0.0
1 -4 0.0
1.5 -4 0.0
2 -4 0.0
2.5 -4 0.0
3 -4 0.0
3.5 -4 0.0
4 -4 0.0
4.5 -4 0.0
5 -4 0.0
6.9457 -4 0.0
8.8914 -4 0.0
12.3514 -4 0.0
15.8114 -4 0.0
21.9642 -4 0.0
28.1171 -4 0.0
39.0585 -4 0.0
50 -4 0.0
0 -4.5 0.0
1 -4.5 0.0
2 -4.5 0.0
3 -4.5 0.0
4 -4.5 0.0
5 -4.5 0.0
8.8914 -4.5 0.0
15.8114 -4.5 0.0
28.1171 -4.5 0.0
50 -4.5 0.0
0 -5 0.0
0.5 -5 0.0
1 -5 0.0
1.5 -5 0.0
2 -5 0.0
2.5 -5 0.0
3 -5 0.0
3.5 -5 0.0
4 -5 0.0
4.5 -5 0.0
5 -5 0.0
6.9457 -5 0.0
8.8914 -5 0.0
12.3514 -5 0.0
15.8114 -5 0.0
21.9642 -5 0.0
28.1171 -5 0.0
39.0585 -5 0.0
50 -5 0.0
0 -5.5 0.0
1 -5.5 0.0
2 -5.5 0.0
3 -5.5 0.0
4 -5.5 0.0
5 -5.5 0.0
8.8914 -5.5 0.0
15.8114 -5.5 0.0
28.1171 -5.5 0.0
50 -5.5 0.0
0 -6 0.0
0.5 -6 0.0
1 -6 0.0
1.5 -6 0.0
2 -6 0.0
2.5 -6 0.0
3 -6 0.0
3.5 -6 0.0
4 -6 0.0
4.5 -6 0.0
5 -6 0.0
6.9457 -6 0.0
8.8914 -6 0.0
12.3514 -6 0.0
15.8114 -6 0.0
21.9642 -6 0.0
28.1171 -6 0.0
39.0585 -6 0.0
50 -6 0.0
0 -6.5 0.0
1 -6.5 0.0
2 -6.5 0.0
3 -6.5 0.0
4 -6.5 0.0
5 -6.5 0.0
8.8914 -6.5 0.0
15.8114 -6.5 0.0
28.1171 -6.5 0.0
50 -6.5 0.0
0 -7 0.0
0.5 -7 0.0
1 -7 0.0
1.5 -7 0.0
2 -7 0.0
2.5 -7 0.0
3 -7 0.0
3.5 -7 0.0
4 -7 0.0
4.5 -7 0.0
5 -7 0.0
6.9457 -7 0.0
8.8914 -7 0.0
12.3514 -7 0.0
15.8114 -7 0.0
21.9642 -7 0.0
28.1171 -7 0.0
39.0585 -7 0.0
50 -7 0.0
0 -7.5 0.0
1 -7.5 0.0
2 -7.5 0.0
3 -7.5 0.0
4 -7.5 0.0
5 -7.5 0.0
8.8914 -7.5 0.0
15.8114 -7.5 0.0
28.1171 -7.5 0.0
50 -7.5 0.0
0 -8 0.0
0.5 -8 0.0
1 -8 0.0
1.5 -8 0.0
2 -8 0.0
2.5 -8 0.0
3 -8 0.0
3.5 -8 0.0
4 -8 0.0
4.5 -8 0.0
5 -8 0.0
6.9457 -8 0.0
8.8914 -8 0.0
12.3514 -8 0.0
15.8114 -8 0.0
21.9642 -8 0.0
28.1171 -8 0.0
39.0585 -8 0.0
50 -8 0.0
0 -8.5 0.0
1 -8.5 0.0
2 -8.5 0.0
3 -8.5 0.0
4 -8.5 0.0
5 -8.5 0.0
8.8914 -8.5 0.0
15.8114 -8.5 0.0
28.1171 -8.5 0.0
50 -8.5 0.0
0 -9 0.0
0.5 -9 0.0
1 -9 0.0
1.5 -9 0.0
2 -9 0.0
2.5 -9 0.0
3 -9 0.0
3.5 -9 0.0
4 -9 0.0
4.5 -9 0.0
5 -9 0.0
6.9457 -9 0.0
8.8914 -9 0.0
12.3514 -9 0.0
15.8114 -9 0.0
21.9642 -9 0.0
28.1171 -9 0.0
39.0585 -9 0.0
50 -9 0.0
0 -9.5 0.0
1 -9.5 0.0
2 -9.5 0.0
3 -9.5 0.0
4 -9.5 0.0
5 -9.5 0.0
8.8914 -9.5 0.0
15.8114 -9.5 0.0
28.1171 -9.5 0.0
50 -9.5 0.0
0 -10 0.0
0.5 -10 0.0
1 -10 0.0
1.5 -10 0.0
2 -10 0.0
2.5 -10 0.0
3 -10 0.0
3.5 -10 0.0
4 -10 0.0
4.5 -10 0.0
5 -10 0.0
6.9457 -10 0.0
8.8914 -10 0.0
12.3514 -10 0.0
15.8114 -10 0.0
21.9642 -10 0.0
28.1171 -10 0.0
39.0585 -10 0.0
50 -10 0.0
0 -10.5 0.0
1 -10.5 0.0
2 -10.5 0.0
3 -10.5 0.0
4 -10.5 0.0
5 -10.5 0.0
8.8914 -10.5 0.0
15.8114 -10.5 0.0
28.1171 -10.5 0.0
50 -10.5 0.0
0 -11 0.0
0.5 -11 0.0
1 -11 0.0
1.5 -11 0.0
2 -11 0.0
2.5 -11 0.0
3 -11 0.0
3.5 -11 0.0
4 -11 0.0
4.5 -11 0.0
5 -11 0.0
6.9457 -11 0.0
8.8914 -11 0.0
12.3514 -11 0.0
15.8114 -11 0.0
21.9642 -11 0.0
28.1171 -11 0.0
39.0585 -11 0.0
50 -11 0.0
0 -11.5 0.0
1 -11.5 0.0
2 -11.5 0.0
3 -11.5 0.0
4 -11.5 0.0
5 -11.5 0.0
8.8914 -11.5 0.0
15.8114 -11.5 0.0
28.1171 -11.5 0.0
50 -11.5 0.0
0 -12 0.0
0.5 -12 0.0
1 -12 0.0
1.5 -12 0.0
2 -12 0.0
2.5 -12 0.0
3 -12 0.0
3.5 -12 0.0
4 -12 0.0
4.5 -12 0.0
5 -12 0.0
6.9457 -12 0.0
8.8914 -12 0.0
12.3514 -12 0.0
15.8114 -12 0.0
21.9642 -12 0.0
28.1171 -12 0.0
39.0585 -12 0.0
50 -12 0.0
0 -12.5 0.0
1 -12.5 0.0
2 -12.5 0.0
3 -12.5 0.0
4 -12.5 0.0
5 -12.5 0.0
8.8914 -12.5 0.0
15.8114 -12.5 0.0
28.1171 -12.5 0.0
50 -12.5 0.0
0 -13 0.0
0.5 -13 0.0
1 -13 0.0
1.5 -13 0.0
2 -13 0.0
2.5 -13 0.0
3 -13 0.0
3.5 -13 0.0
4 -13 0.0
4.5 -13 0.0
5 -13 0.0
6.9457 -13 0.0
8.8914 -13 0.0
12.3514 -13 0.0
15.8114 -13 0.0
21.9642 -13 0.0
28.1171 -13 0.0
39.0585 -13 0.0
50 -13 0.0
0 -13.5 0.0
1 -13.5 0.0
2 -13.5 0.0
3 -13.5 0.0
4 -13.5 0.0
5 -13.5 0.0
8.8914 -13.5 0.0
15.8114 -13.5 0.0
28.1171 -13.5 0.0
50 -13.5 0.0
0 -14 0.0
0.5 -14 0.0
1 -14 0.0
1.5 -14 0.0
2 -14 0.0
2.5 -14 0.0
3 -14 0.0
3.5 -14 0.0
4 -14 0.0
4.5 -14 0.0
5 -14 0.0
6.9457 -14 0.0
8.8914 -14 0.0
12.3514 -14 0.0
15.8114 -14 0.0
21.9642 -14 0.0
28.1171 -14 0.0
39.0585 -14 0.0
50 -14 0.0
0 -14.5 0.0
1 -14.5 0.0
2 -14.5 0.0
3 -14.5 0.0
4 -14.5 0.0
5 -14.5 0.0
8.8914 -14.5 0.0
15.8114 -14.5 0.0
28.1171 -14.5 0.0
50 -14.5 0.0
0 -15 0.0
0.5 -15 0.0
1 -15 0.0
1.5 -15 0.0
2 -15 0.0
2.5 -15 0.0
3 -15 0.0
3.5 -15 0.0
4 -15 0.0
4.5 -15 0.0
5 -15 0.0
6.9457 -15 0.0
8.8914 -15 0.0
12.3514 -15 0.0
15.8114 -15 0.0
21.9642 -15 0.0
28.1171 -15 0.0
39.0585 -15 0.0
50 -15 0.0
0 -16.5 0.0
1 -16.5 0.0
2 -16.5 0.0
3 -16.5 0.0
4 -16.5 0.0
5 -16.5 0.0
8.8914 -16.5 0.0
15.8114 -16.5 0.0
28.1171 -16.5 0.0
50 -16.5 0.0
0 -18 0.0
0.5 -18 0.0
1 -18 0.0
1.5 -18 0.0
2 -18 0.0
2.5 -18 0.0
3 -18 0.0
3.5 -18 0.0
4 -18 0.0
4.5 -18 0.0
5 -18 0.0
6.9457 -18 0.0
8.8914 -18 0.0
12.3514 -18 0.0
15.8114 -18 0.0
21.9642 -18 0.0
28.1171 -18 0.0
39.0585 -18 0.0
50 -18 0.0
0 -19.5 0.0
1 -19.5 0.0
2 -19.5 0.0
3 -19.5 0.0
4 -19.5 0.0
5 -19.5 0.0
8.8914 -19.5 0.0
15.8114 -19.5 0.0
28.1171 -19.5 0.0
50 -19.5 0.0
0 -21 0.0
0.5 -21 0.0
1 -21 0.0
1.5 -21 0.0
2 -21 0.0
2.5 -21 0.0
3 -21 0.0
3.5 -21 0.0
4 -21 0.0
4.5 -21 0.0
5 -21 0.0
6.9457 -21 0.0
8.8914 -21 0.0
12.3514 -21 0.0
15.8114 -21 0.0
21.9642 -21 0.0
28.1171 -21 0.0
39.0585 -21 0.0
50 -21 0.0
0 -22.5 0.0
1 -22.5 0.0
2 -22.5 0.0
3 -22.5 0.0
4 -22.5 0.0
5 -22.5 0.0
8.8914 -22.5 0.0
15.8114 -22.5 0.0
28.1171 -22.5 0.0
50 -22.5 0.0
0 -24 0.0
0.5 -24 0.0
1 -24 0.0
1.5 -24 0.0
2 -24 0.0
2.5 -24 0.0
3 -24 0.0
3.5 -24 0.0
4 -24 0.0
4.5 -24 0.0
5 -24 0.0
6.9457 -24 0.0
8.8914 -24 0.0
12.3514 -24 0.0
15.8114 -24 0.0
21.9642 -24 0.0
28.1171 -24 0.0
39.0585 -24 0.0
50 -24 0.0
0 -25.5 0.0
1 -25.5 0.0
2 -25.5 0.0
3 -25.5 0.0
4 -25.5 0.0
5 -25.5 0.0
8.8914 -25.5 0.0
15.8114 -25.5 0.0
28.1171 -25.5 0.0
50 -25.5 0.0
0 -27 0.0
0.5 -27 0.0
1 -27 0.0
1.5 -27 0.0
2 -27 0.0
2.5 -27 0.0
3 -27 0.0
3.5 -27 0.0
4 -27 0.0
4.5 -27 0.0
5 -27 0.0
6.9457 -27 0.0
8.8914 -27 0.0
12.3514 -27 0.0
15.8114 -27 0.0
21.9642 -27 0.0
28.1171 -27 0.0
39.0585 -27 0.0
50 -27 0.0
0 -28.5 0.0
1 -28.5 0.0
2 -28.5 0.0
3 -28.5 0.0
4 -28.5 0.0
5 -28.5 0.0
8.8914 -28.5 0.0
15.8114 -28.5 0.0
28.1171 -28.5 0.0
50 -28.5 0.0
0 -30 0.0
0.5 -30 0.0
1 -30 0.0
1.5 -30 0.0
2 -30 0.0
2.5 -30 0.0
3 -30 0.0
3.5 -30 0.0
4 -30 0.0
4.5 -30 0.0
5 -30 0.0
6.9457 -30 0.0
8.8914 -30 0.0
12.3514 -30 0.0
15.8114 -30 0.0
21.9642 -30 0.0
28.1171 -30 0.0
39.0585 -30 0.0
50 -30 0.0
0 -31.5 0.0
1 -31.5 0.0
2 -31.5 0.0
3 -31.5 0.0
4 -31.5 0.0
5 -31.5 0.0
8.8914 -31.5 0.0
15.8114 -31.5 0.0
28.1171 -31.5 0.0
50 -31.5 0.0
0 -33 0.0
0.5 -33 0.0
1 -33 0.0
1.5 -33 0.0
2 -33 0.0
2.5 -33 0.0
3 -33 0.0
3.5 -33 0.0
4 -33 0.0
4.5 -33 0.0
5 -33 0.0
6.9457 -33 0.0
8.8914 -33 0.0
12.3514 -33 0.0
15.8114 -33 0.0
21.9642 -33 0.0
28.1171 -33 0.0
39.0585 -33 0.0
50 -33 0.0
0 -34.5 0.0
1 -34.5 0.0
2 -34.5 0.0
3 -34.5 0.0
4 -34.5 0.0
5 -34.5 0.0
8.8914 -34.5 0.0
15.8114 -34.5 0.0
28.1171 -34.5 0.0
50 -34.5 0.0
0 -36 0.0
0.5 -36 0.0
1 -36 0.0
1.5 -36 0.0
2 -36 0.0
2.5 -36 0.0
3 -36 0.0
3.5 -36 0.0
4 -36 0.0
4.5 -36 0.0
5 -36 0.0
6.9457 -36 0.0
8.8914 -36 0.0
12.3514 -36 0.0
15.8114 -36 0.0
21.9642 -36 0.0
28.1171 -36 0.0
39.0585 -36 0.0
50 -36 0.0
0 -37.5 0.0
1 -37.5 0.0
2 -37.5 0.0
3 -37.5 0.0
4 -37.5 0.0
5 -37.5 0.0
8.8914 -37.5 0.0
15.8114 -37.5 0.0
28.1171 -37.5 0.0
50 -37.5 0.0
0 -39 0.0
0.5 -39 0.0
1 -39 0.0
1.5 -39 0.0
2 -39 0.0
2.5 -39 0.0
3 -39 0.0
3.5 -39 0.0
4 -39 0.0
4.5 -39 0.0
5 -39 0.0
6.9457 -39 0.0
8.8914 -39 0.0
12.3514 -39 0.0
15.8114 -39 0.0
21.9642 -39 0.0
28.1171 -39 0.0
39.0585 -39 0.0
50 -39 0.0
0 -40.5 0.0
1 -40.5 0.0
2 -40.5 0.0
3 -40.5 0.0
4 -40.5 0.0
5 -40.5 0.0
8.8914 -40.5 0.0
15.8114 -40.5 0.0
28.1171 -40.5 0.0
50 -40.5 0.0
0 -42 0.0
0.5 -42 0.0
1 -42 0.0
1.5 -42 0.0
2 -42 0.0
2.5 -42 0.0
3 -42 0.0
3.5 -42 0.0
4 -42 0.0
4.5 -42 0.0
5 -42 0.0
6.9457 -42 0.0
8.8914 -42 0.0
12.3514 -42 0.0
15.8114 -42 0.0
21.9642 -42 0.0
28.1171 -42 0.0
39.0585 -42 0.0
50 -42 0.0
0 -43.5 0.0
1 -43.5 0.0
2 -43.5 0.0
3 -43.5 0.0
4 -43.5 0.0
5 -43.5 0.0
8.8914 -43.5 0.0
15.8114 -43.5 0.0
28.1171 -43.5 0.0
50 -43.5 0.0
0 -45 0.0
0.5 -45 0.0
1 -45 0.0
1.5 -45 0.0
2 -45 0.0
2.5 -45 0.0
3 -45 0.0
3.5 -45 0.0
4 -45 0.0
4.5 -45 0.0
5 -45 0.0
6.9457 -45 0.0
8.8914 -45 0.0
12.3514 -45 0.0
15.8114 -45 0.0
21.9642 -45 0.0
28.1171 -45 0.0
39.0585 -45 0.0
50 -45 0.0
0 -50.5 0.0
1 -50.5 0.0
2 -50.5 0.0
3 -50.5 0.0
4 -50.5 0.0
5 -50.5 0.0
8.8914 -50.5 0.0
15.8114 -50.5 0.0
28.1171 -50.5 0.0
50 -50.5 0.0
0 -56 0.0
0.5 -56 0.0
1 -56 0.0
1.5 -56 0.0
2 -56 0.0
2.5 -56 0.0
3 -56 0.0
3.5 -56 0.0
4 -56 0.0
4.5 -56 0.0
5 -56 0.0
6.9457 -56 0.0
8.8914 -56 0.0
12.3514 -56 0.0
15.8114 -56 0.0
21.9642 -56 0.0
28.1171 -56 0.0
39.0585 -56 0.0
50 -56 0.0
0 -61.5 0.0
1 -61.5 0.0
2 -61.5 0.0
3 -61.5 0.0
4 -61.5 0.0
5 -61.5 0.0
8.8914 -61.5 0.0
15.8114 -61.5 0.0
28.1171 -61.5 0.0
[...]
POINT_DATA 889
SCALARS Displacement_R double 1
LOOKUP_TABLE default
0
-3.25481e-05
-7.15211e-05
-0.000180588
-0.000286496
-0.000382559
-0.000461933
-0.000529723
-0.000584589
-0.000615619
-0.000635226
-0.00061948
-0.000494107
-0.000246729
-5.53401e-05
7.40648e-05
9.72398e-05
4.33801e-05
0
0
-3.32448e-05
-0.000155501
-0.000240318
-0.000278945
-0.000293554
-0.000308704
-1.20227e-05
9.22216e-05
0
0
-7.39282e-06
-1.30739e-05
-3.18518e-05
-4.61903e-05
-5.41942e-05
-5.8163e-05
-5.58357e-05
-4.53031e-05
-3.25288e-05
-4.36217e-05
-0.000124602
-0.000128747
-4.05057e-05
3.43045e-05
9.11097e-05
8.75206e-05
3.90449e-05
0
0
2.12916e-05
5.53631e-05
9.05097e-05
0.000131969
0.000143678
3.90963e-05
8.49075e-05
8.42962e-05
0
0
3.26724e-05
7.08889e-05
0.00010948
0.00014513
0.000181725
0.000217639
0.000251137
0.000277947
0.000295544
0.000300958
0.00025572
0.000200758
0.000157827
0.000136929
0.000110643
8.12422e-05
3.45728e-05
0
0
0.000124541
0.000231382
0.000331229
0.00041258
0.000451262
0.000357457
0.000188637
7.84676e-05
0
0
9.72821e-05
0.000176852
0.000247866
0.000316186
0.000382321
0.000446686
0.000503751
0.000550166
0.000584741
0.000606921
0.000598148
0.000513274
0.00035289
0.000239717
0.000131174
7.57753e-05
3.01521e-05
0
0
0.000217082
0.000399505
0.000575825
0.00071064
0.000784984
0.000672508
0.000287079
7.2283e-05
0
0
9.96454e-05
0.000212201
0.000352203
0.000494272
0.000621288
0.000732456
0.000827118
0.000905993
0.000966013
0.00100442
0.000987462
0.000836177
0.000547898
0.000331645
0.000150983
6.88054e-05
2.59146e-05
0
0
0.000135746
0.000444576
0.00070443
0.000884225
0.000991374
0.000883704
0.000383217
7.43852e-05
0
0
6.96291e-05
0.000171477
0.000310727
0.000453435
0.0005767
0.000685418
0.000781586
0.000860487
0.00092315
0.000971623
0.00101409
0.000915566
0.000658417
0.000428612
0.000193849
8.01806e-05
2.25504e-05
0
0
0.000284279
0.00047582
0.000673177
0.000837004
0.00094949
0.000936537
0.000465889
8.49005e-05
0
0
0.000150661
0.000284986
0.000395158
0.000482943
0.000570999
0.000659136
0.000740037
0.000812586
0.000874117
0.000924215
0.00100035
0.000945877
0.00072752
0.000496975
0.000227616
8.95951e-05
1.96872e-05
0
0
0.000266613
0.000470214
0.000640039
0.0007864
0.000896092
0.000947557
0.000520976
9.30179e-05
0
0
0.000126872
0.000246256
0.0003521
0.000448202
0.000536338
0.000617047
0.000691036
0.000757784
0.000816435
0.00086608
0.000961746
0.000940508
0.000761135
0.000538895
0.00025111
9.6213e-05
1.71608e-05
0
0
0.000227326
0.000424507
0.000590005
0.000727459
0.000833394
0.000927878
0.000550468
9.79657e-05
0
0
0.00010703
0.00021083
0.000308758
0.00039988
0.000484066
0.000561344
0.00063184
0.000695115
0.000751111
0.000799374
0.000905787
0.000908363
0.000764138
0.000556116
0.000263551
9.93324e-05
1.48489e-05
0
0
0.00019623
0.000375984
0.00053173
0.000661521
0.000763113
0.000884353
0.00055592
9.91328e-05
0
0
9.23384e-05
0.000182793
0.000269857
0.000352535
0.000429918
0.000501628
0.000567299
0.000626664
0.000679558
0.000725661
0.000835995
0.000854465
0.000740009
0.000549934
0.000264427
9.8439e-05
1.26682e-05
0
0
0.000170144
0.000329626
0.000471181
0.000590871
0.000686194
0.000820456
0.000538388
9.61062e-05
0
0
7.95662e-05
0.000157908
0.000234005
0.000306911
0.000375859
0.000440301
0.000499752
0.000553882
0.000602471
0.000645269
0.000753268
0.000780889
0.000690687
0.000521115
0.00025341
9.3225e-05
1.05764e-05
0
0
0.000145877
0.000284174
0.000408799
0.000515643
0.000602086
0.000737023
0.000498343
8.86843e-05
0
0
6.73311e-05
0.00013377
0.000198591
0.000261034
0.000320454
0.000376326
0.000428181
0.000475692
0.000518611
0.000556721
0.000656334
0.000687312
0.000616566
0.000469811
0.000230309
8.35976e-05
8.57474e-06
0
0
0.000121377
0.000237171
0.000342488
0.000433685
0.000508343
0.000632618
0.000435614
7.68909e-05
0
0
5.45444e-05
0.000108458
0.000161213
0.000212165
0.000260846
0.000306782
0.000349592
0.00038897
0.000424691
0.000456576
0.0005418
0.000571192
0.000516519
0.000395517
0.000195035
6.96989e-05
6.70759e-06
0
0
9.48035e-05
0.000185611
0.000268643
0.000340945
0.000400536
0.000503564
0.000349386
6.1007e-05
0
0
4.03037e-05
8.01259e-05
0.000119143
0.000157007
0.000193187
0.000227401
0.000259313
0.000288713
0.00031546
0.000339362
0.000403975
0.000427667
0.000387896
0.000297117
0.000147562
5.19508e-05
5.0566e-06
0
0
6.40674e-05
0.000125823
0.000182229
0.000231406
0.000272052
0.000343716
0.000238351
4.1652e-05
0
0
2.32657e-05
4.6583e-05
6.95894e-05
9.14014e-05
0.000112468
0.000132246
0.00015074
0.000167757
0.000183299
0.000197224
0.000234558
0.00024919
0.000226405
0.000173141
8.78429e-05
3.11715e-05
3.72258e-06
0
0
2.79279e-05
5.34321e-05
7.63601e-05
9.64494e-05
0.000113256
0.000144057
0.000101332
2.0015e-05
0
0
5.23716e-06
9.56355e-06
9.63148e-06
1.06345e-05
1.17911e-05
1.31286e-05
1.44924e-05
1.5873e-05
1.72058e-05
1.84911e-05
2.25048e-05
2.50343e-05
2.55241e-05
2.27772e-05
1.54993e-05
8.9212e-06
2.77077e-06
0
0
6.86327e-06
7.17185e-06
8.80554e-06
1.06382e-05
1.24118e-05
1.73546e-05
1.74844e-05
8.04249e-06
0
0
1.34134e-06
2.64265e-06
3.21572e-06
3.97324e-06
4.7351e-06
5.48903e-06
6.21427e-06
6.91627e-06
7.58739e-06
8.23122e-06
1.04018e-05
1.20822e-05
1.34088e-05
1.31885e-05
1.0494e-05
7.03116e-06
2.58777e-06
0
0
1.04102e-06
2.22157e-06
3.35287e-06
4.40411e-06
5.36794e-06
8.26425e-06
9.89468e-06
6.08731e-06
0
0
3.38497e-07
6.93375e-07
1.04527e-06
1.35979e-06
1.71518e-06
2.06717e-06
2.42231e-06
2.76872e-06
3.10869e-06
3.43771e-06
4.61827e-06
5.6141e-06
6.78851e-06
7.30393e-06
6.73343e-06
5.12442e-06
2.20225e-06
0
0
4.17308e-07
8.43054e-07
1.28055e-06
1.72441e-06
2.1638e-06
3.70329e-06
5.31562e-06
4.29003e-06
0
0
1.28092e-07
2.50926e-07
3.67672e-07
4.97948e-07
6.27556e-07
7.6067e-07
8.93543e-07
1.03028e-06
1.1669e-06
1.30625e-06
1.84279e-06
2.37367e-06
3.18164e-06
3.78873e-06
4.05788e-06
3.49236e-06
1.73085e-06
0
0
1.29682e-07
2.63987e-07
4.05943e-07
5.57867e-07
7.19397e-07
1.41806e-06
2.60677e-06
2.82056e-06
0
0
2.37475e-08
4.99267e-08
7.83468e-08
1.04981e-07
1.34702e-07
1.66483e-07
2.01023e-07
2.37828e-07
2.77933e-07
3.20714e-07
5.153e-07
7.51874e-07
1.23078e-06
1.71744e-06
2.23338e-06
2.20638e-06
1.26008e-06
0
0
-3.17102e-09
-2.74526e-09
4.39408e-09
2.09314e-08
4.87258e-08
2.79453e-07
1.02736e-06
1.69746e-06
0
0
-1.91098e-08
-3.84141e-08
-5.72846e-08
-7.40604e-08
-8.96049e-08
-1.03254e-07
-1.14814e-07
-1.23762e-07
-1.30075e-07
-1.33338e-07
-1.16297e-07
-4.80481e-08
1.89884e-07
5.1881e-07
1.03063e-06
1.24855e-06
8.40535e-07
0
0
-6.17113e-08
-1.20624e-07
-1.73971e-07
-2.19382e-07
-2.54856e-07
-2.73971e-07
1.263e-07
8.80521e-07
0
0
-3.83152e-08
-7.60952e-08
-1.13183e-07
-1.49571e-07
-1.8464e-07
-2.18173e-07
-2.49884e-07
-2.79586e-07
-3.06926e-07
-3.31818e-07
-4.02452e-07
-4.26505e-07
-3.48214e-07
-1.55432e-07
2.63883e-07
5.66326e-07
4.9493e-07
0
0
-8.43732e-08
-1.66507e-07
-2.44278e-07
-3.15695e-07
-3.79064e-07
-5.2509e-07
-3.68629e-07
3.11196e-07
0
0
-4.42863e-08
-8.83718e-08
-1.32e-07
-1.74818e-07
-2.16697e-07
-2.57388e-07
-2.96681e-07
-3.34357e-07
-3.702e-07
-4.0404e-07
-5.14469e-07
-5.8614e-07
-6.06847e-07
-5.15217e-07
-2.05333e-07
1.00625e-07
2.27479e-07
0
0
-8.95327e-08
-1.77358e-07
-2.61798e-07
-3.41293e-07
-4.14483e-07
-6.18609e-07
-6.20886e-07
-6.82567e-08
0
0
-4.44262e-08
-8.86365e-08
-1.32471e-07
-1.75767e-07
-2.18314e-07
-2.59952e-07
-3.00492e-07
-3.39794e-07
-3.77605e-07
-4.13964e-07
-5.38481e-07
-6.31856e-07
-7.09722e-07
-6.87157e-07
-4.7549e-07
-2.02146e-07
3.18904e-08
0
0
-8.63881e-08
-1.71474e-07
-2.53971e-07
-3.32685e-07
-4.0653e-07
-6.30427e-07
-7.2898e-07
-3.07365e-07
0
0
-4.16878e-08
-8.32202e-08
-1.24481e-07
-1.65285e-07
-2.0556e-07
-2.4511e-07
-2.83834e-07
-3.21593e-07
-3.58434e-07
-3.93784e-07
-5.18963e-07
-6.19436e-07
-7.26048e-07
-7.47982e-07
-6.14675e-07
-3.86183e-07
-1.02984e-07
0
0
-7.95892e-08
-1.58126e-07
-2.34587e-07
-3.08177e-07
-3.7799e-07
-6.00682e-07
-7.51338e-07
-4.45341e-07
0
0
-3.77858e-08
-7.54667e-08
-1.12937e-07
-1.50113e-07
-1.86793e-07
-2.23001e-07
-2.58204e-07
-2.92774e-07
-3.2619e-07
-3.5981e-07
-4.7861e-07
-5.78065e-07
-6.96835e-07
-7.41597e-07
-6.69988e-07
-4.85304e-07
-1.89723e-07
0
0
-6.06043e-08
-1.20658e-07
-1.79694e-07
-2.37495e-07
-2.92895e-07
-4.79111e-07
-6.60299e-07
-5.36418e-07
0
0
-2.35679e-08
-4.70799e-08
-7.02639e-08
-9.32832e-08
-1.1563e-07
-1.37689e-07
-1.58601e-07
-1.7907e-07
-2.02509e-07
-2.22981e-07
-3.01443e-07
-3.73992e-07
-4.69625e-07
-5.3487e-07
-5.5429e-07
-4.80836e-07
-2.57699e-07
0
0
-3.43834e-08
-6.89419e-08
-1.03783e-07
-1.38973e-07
-1.68759e-07
-2.74721e-07
-4.10402e-07
-4.04041e-07
0
0
3.38054e-10
6.80164e-10
1.48698e-09
2.28915e-09
3.90301e-09
5.48652e-09
8.06185e-09
1.05412e-08
0
-1.92349e-08
-1.00225e-07
-1.71969e-07
-2.48492e-07
-3.03198e-07
-3.36571e-07
-3.14891e-07
-1.79161e-07
0
0
-1.77374e-08
-3.59921e-08
-5.51286e-08
-7.533e-08
-8.84081e-08
-1.37816e-07
-2.19077e-07
-2.36709e-07
0
-3.82785e-11
-2.73211e-10
-5.12925e-10
-2.69252e-10
1.61127e-11
1.19266e-09
2.45168e-09
4.94716e-09
7.58971e-09
0
-9.00788e-09
-5.11229e-08
-9.07989e-08
-1.27016e-07
-1.56374e-07
-1.78162e-07
-1.72067e-07
-1.00266e-07
0
0
-8.99767e-09
-1.82928e-08
-2.8148e-08
-3.88796e-08
-4.5653e-08
-7.03382e-08
-1.12452e-07
-1.25505e-07
0
-1.50145e-11
-2.03379e-10
-3.93848e-10
-3.52295e-10
-3.07249e-10
2.17301e-10
7.3964e-10
2.08224e-09
3.39433e-09
0
-5.67891e-09
-2.97122e-08
-5.1381e-08
-7.30526e-08
-8.95838e-08
-1.03145e-07
-1.01571e-07
-5.94854e-08
0
0
-7.37069e-09
-1.48389e-08
-2.25244e-08
-3.06503e-08
-3.70097e-08
-6.01951e-08
-9.50573e-08
-1.05538e-07
0
0
-5.88855e-09
-1.17715e-08
-1.75262e-08
-2.3267e-08
-2.87019e-08
-3.40935e-08
-3.87807e-08
-4.33166e-08
-4.9674e-08
-5.46768e-08
-7.46218e-08
-9.43965e-08
-1.20042e-07
-1.41222e-07
-1.59664e-07
-1.56398e-07
-9.07004e-08
0
SCALARS Displacement_Z double 1
LOOKUP_TABLE default
-0.00602416
-0.0060137
-0.00597112
-0.00585208
-0.00571651
-0.00554686
-0.00533364
-0.00507715
-0.00476976
-0.00439998
-0.00391239
-0.00256539
-0.00165792
-0.000636785
-0.000136114
0.000124928
0.000104526
3.26375e-05
7.22064e-06
-0.00602752
-0.0060002
-0.005783
-0.00537905
-0.00479264
-0.00394966
-0.00164771
-0.000124415
0.000103829
5.85786e-06
-0.00603551
-0.00602044
-0.00599806
-0.00592068
-0.00578361
-0.00560012
-0.00536888
-0.00509159
-0.00476733
-0.00438826
-0.00397093
-0.00260934
-0.00164295
-0.000609867
-0.000115753
0.000134603
0.000103123
3.00298e-05
4.59907e-06
-0.00599857
-0.00595695
-0.00573941
-0.00532064
-0.00471225
-0.00396701
-0.00163766
-0.000109397
0.000102283
3.36296e-06
-0.00593207
-0.00591862
-0.00587816
-0.00579618
-0.00566014
-0.00547413
-0.00524134
-0.00496304
-0.00464562
-0.00430042
-0.00393921
-0.00262056
-0.00163415
-0.000599103
-0.000106176
0.000138154
0.000101392
2.76699e-05
2.24007e-06
-0.00581862
-0.00576406
-0.0055541
-0.00514022
-0.00456332
-0.00389243
-0.00162965
-0.000104981
0.000100455
1.2341e-06
-0.00563905
-0.00564088
-0.00561849
-0.0055502
-0.00542312
-0.00524178
-0.00501711
-0.00475615
-0.00446455
-0.00415093
-0.00382471
-0.00258289
-0.00162541
-0.000600141
-0.00010697
0.000135274
9.94661e-05
2.54226e-05
3.38616e-07
-0.00543034
-0.00543993
-0.00526275
-0.0048686
-0.0043445
-0.00374113
-0.00161967
-0.000110973
9.83189e-05
-4.92313e-07
-0.00523179
-0.00521459
-0.00523178
-0.00518631
-0.00505677
-0.0048909
-0.00468712
-0.00445336
-0.00419498
-0.00391994
-0.0036393
-0.00250359
-0.00161617
-0.000613771
-0.00011798
0.000126349
9.7125e-05
2.33409e-05
-1.21393e-06
-0.00506429
-0.00502168
-0.00469059
-0.00434808
-0.00390847
-0.00341486
-0.00156263
-0.000118869
9.41745e-05
-2.04638e-06
-0.00494617
-0.00493356
-0.00481753
-0.00449101
-0.00433892
-0.00418646
-0.0040223
-0.00383663
-0.00363222
-0.00341525
-0.00318876
-0.00226714
-0.00150168
-0.000592991
-0.000120344
0.00011341
9.06719e-05
2.16228e-05
-2.63469e-06
-0.00457282
-0.0043964
-0.00400616
-0.00371451
-0.00336598
-0.0029702
-0.00143647
-0.000121364
8.68554e-05
-3.08134e-06
-0.00413352
-0.00409372
-0.00398318
-0.00383878
-0.00369188
-0.0035622
-0.00342363
-0.00327251
-0.00311006
-0.002936
-0.00275421
-0.00201065
-0.00136523
-0.000559163
-0.000122379
9.78962e-05
8.25542e-05
1.9433e-05
-3.31467e-06
-0.0037197
-0.00361706
-0.00339281
-0.00314522
-0.00286315
-0.00254586
-0.00129086
-0.000122627
7.80004e-05
-3.44913e-06
-0.00335287
-0.00333062
-0.00327484
-0.00319422
-0.00309865
-0.00299279
-0.00287919
-0.00275692
-0.00262593
-0.00248702
-0.00234181
-0.00174614
-0.00121214
-0.000513772
-0.000122438
8.1023e-05
7.30557e-05
1.68756e-05
-3.40684e-06
-0.00301315
-0.00295705
-0.00281417
-0.00262287
-0.00239716
-0.00214473
-0.00113165
-0.000121351
6.79414e-05
-3.29707e-06
-0.00270378
-0.00269165
-0.002659
-0.00260771
-0.00254144
-0.00246361
-0.00237607
-0.0022802
-0.00217697
-0.00206735
-0.00195276
-0.00148143
-0.00104839
-0.000458885
-0.000119551
6.38048e-05
6.25537e-05
1.40728e-05
-3.05298e-06
-0.00241495
-0.00237929
-0.00228174
-0.00213918
-0.00196455
-0.0017673
-0.000964654
-0.000116835
5.70884e-05
-2.76676e-06
-0.00214541
-0.00213782
-0.00211609
-0.00208105
-0.00203437
-0.00197752
-0.00191206
-0.00183925
-0.00176021
-0.00167585
-0.00158742
-0.00122189
-0.000879554
-0.000396868
-0.000113246
4.70983e-05
5.14841e-05
1.11643e-05
-2.39294e-06
-0.0018919
-0.00186779
-0.00179922
-0.00169486
-0.00156371
-0.00141396
-0.000795089
-0.000108802
4.58974e-05
-1.99971e-06
-0.00165352
-0.00164839
-0.00163343
-0.00160899
-0.00157594
-0.0015351
-0.00148744
-0.00143389
-0.00137533
-0.00131256
-0.00124653
-0.000971734
-0.000710507
-0.000330152
-0.000103396
3.16566e-05
4.03167e-05
8.30235e-06
-1.56843e-06
-0.00142868
-0.00141208
-0.00136419
-0.00128987
-0.00119502
-0.00108573
-0.000627518
-9.72335e-05
3.48494e-05
-1.13983e-06
-0.00121702
-0.00121355
-0.00120335
-0.0011866
-0.00116382
-0.00113545
-0.00110213
-0.00106446
-0.00102307
-0.000978543
-0.000931552
-0.00073468
-0.000545532
-0.000261092
-9.00454e-05
1.81858e-05
2.95378e-05
5.64608e-06
-7.24543e-07
-0.00101789
-0.00100682
-0.000974675
-0.000924362
-0.000859619
-0.000784511
-0.000465991
-8.2203e-05
2.44342e-05
-3.34194e-07
-0.000831412
-0.000829161
-0.000822533
-0.000811694
-0.000796921
-0.000778487
-0.000756794
-0.000732179
-0.000705074
-0.00067584
-0.000644896
-0.000514442
-0.000388478
-0.000191868
-7.32521e-05
7.4076e-06
1.96359e-05
3.35434e-06
-9.78184e-09
-0.000657519
-0.000650599
-0.000630733
-0.000599747
-0.000559806
-0.00051325
-0.000314202
-6.37192e-05
1.51383e-05
2.68677e-07
-0.00049673
-0.000495384
-0.000491541
-0.000485172
-0.00047665
-0.000466168
-0.00045383
-0.000439862
-0.000424447
-0.000407843
-0.000390205
-0.000315113
-0.000242902
-0.000124398
-5.29349e-05
1.24205e-07
1.1091e-05
1.57645e-06
4.27574e-07
-0.000349538
-0.00034586
-0.000335352
-0.000319717
-0.000299732
-0.000276357
-0.000175625
-4.15893e-05
7.43954e-06
5.27752e-07
-0.00021751
-0.000216869
-0.000214484
-0.000211433
-0.000207917
-0.000203492
-0.00019849
-0.00019281
-0.000186569
-0.000179841
-0.00017282
-0.000141601
-0.000112197
-6.019e-05
-2.87486e-05
-2.71903e-06
4.37504e-06
4.36829e-07
4.53904e-07
-0.000101746
-9.86019e-05
-9.53684e-05
-9.1331e-05
-8.61827e-05
-8.00858e-05
-5.37657e-05
-1.53178e-05
1.83248e-06
3.41413e-07
0
0
0
0
0
0
0
0
0
0
0
0
0
0
0
0
0
0
0
9.64146e-06
6.81782e-06
5.66058e-06
5.27639e-06
4.95796e-06
4.60553e-06
2.82566e-06
3.45958e-07
-3.85358e-07
-1.16591e-07
9.53393e-06
9.77394e-06
9.99093e-06
9.31635e-06
8.98195e-06
8.66566e-06
8.40878e-06
8.15715e-06
7.904e-06
7.6407e-06
7.36381e-06
6.13878e-06
4.81027e-06
2.65692e-06
9.23321e-07
-3.7232e-07
-6.32972e-07
-5.28421e-07
-2.68637e-07
1.18621e-05
1.14198e-05
1.07977e-05
1.02104e-05
9.62117e-06
8.98856e-06
6.10442e-06
1.44178e-06
-7.97914e-07
-4.20389e-07
1.1804e-05
1.18591e-05
1.17895e-05
1.16961e-05
1.14916e-05
1.12684e-05
1.10127e-05
1.07399e-05
1.04488e-05
1.01384e-05
9.81111e-06
8.41839e-06
6.89343e-06
4.23024e-06
1.9654e-06
-1.3695e-07
-8.6651e-07
-8.87097e-07
-5.79519e-07
1.18733e-05
1.18185e-05
1.15669e-05
1.11837e-05
1.06856e-05
1.0102e-05
7.31251e-06
2.37476e-06
-8.83526e-07
-7.28635e-07
1.15845e-05
1.15583e-05
1.15169e-05
1.14196e-05
1.13057e-05
1.11557e-05
1.09771e-05
1.07748e-05
1.05469e-05
1.02978e-05
1.00286e-05
8.822e-06
7.45724e-06
4.95303e-06
2.71663e-06
2.64372e-07
-8.45187e-07
-1.09735e-06
-8.65997e-07
1.10823e-05
1.10143e-05
1.08435e-05
1.05647e-05
1.01914e-05
9.73538e-06
7.41836e-06
2.95595e-06
-7.81424e-07
-9.87512e-07
1.04594e-05
1.04502e-05
1.04116e-05
1.03526e-05
1.02668e-05
1.01587e-05
1.00284e-05
9.87666e-06
9.70519e-06
9.5147e-06
9.30659e-06
8.35321e-06
7.24153e-06
5.11085e-06
3.12019e-06
6.34904e-07
-6.92605e-07
-1.1933e-06
-1.08784e-06
9.80449e-06
9.76497e-06
9.63886e-06
9.43352e-06
9.15359e-06
8.80644e-06
6.98196e-06
3.21086e-06
-5.97183e-07
-1.17119e-06
9.13822e-06
9.12825e-06
9.10153e-06
9.05554e-06
8.99271e-06
8.91225e-06
8.81508e-06
8.70157e-06
8.57247e-06
8.42862e-06
8.27078e-06
7.53692e-06
6.66272e-06
4.92959e-06
3.24068e-06
9.06868e-07
-4.95518e-07
-1.20767e-06
-1.23119e-06
8.47849e-06
8.44629e-06
8.35286e-06
8.19913e-06
7.98878e-06
7.72596e-06
6.31409e-06
3.22457e-06
-3.9812e-07
-1.27578e-06
7.84051e-06
7.83381e-06
7.81335e-06
7.77959e-06
7.73248e-06
7.67224e-06
7.59932e-06
7.51389e-06
7.41657e-06
7.30781e-06
7.18813e-06
6.62684e-06
5.94769e-06
4.5651e-06
3.166e-06
1.0721e-06
-3.0452e-07
-1.16769e-06
-1.29917e-06
7.23474e-06
7.2114e-06
7.1411e-06
7.02549e-06
6.86662e-06
6.66719e-06
5.57853e-06
3.0822e-06
-2.20112e-07
-1.31005e-06
6.66438e-06
6.65917e-06
6.64388e-06
6.61829e-06
6.58276e-06
6.53727e-06
6.48214e-06
6.41745e-06
6.34362e-06
6.26096e-06
6.1698e-06
5.7397e-06
5.2129e-06
4.11744e-06
2.9719e-06
1.14629e-06
-1.43806e-07
-1.09428e-06
-1.30384e-06
6.1309e-06
6.11301e-06
6.05981e-06
5.97204e-06
5.85114e-06
5.69891e-06
4.85721e-06
2.85035e-06
-7.78781e-08
-1.28841e-06
5.63443e-06
5.63051e-06
5.61885e-06
5.59941e-06
5.57237e-06
5.53771e-06
5.49567e-06
5.44629e-06
5.38988e-06
5.32651e-06
5.25654e-06
4.92522e-06
4.51514e-06
3.64737e-06
2.71428e-06
1.15169e-06
-2.10394e-08
-1.0026e-06
-1.26049e-06
5.17429e-06
5.16067e-06
5.11996e-06
5.05275e-06
4.96001e-06
4.8429e-06
4.18868e-06
2.57564e-06
2.62054e-08
-1.22641e-06
4.74894e-06
4.74591e-06
4.73697e-06
4.72203e-06
4.70123e-06
4.6746e-06
4.64222e-06
4.60418e-06
4.56062e-06
4.51172e-06
4.45757e-06
4.20048e-06
3.88001e-06
3.18996e-06
2.43078e-06
1.10971e-06
6.50455e-08
-9.03256e-07
-1.18406e-06
4.35634e-06
4.34589e-06
4.31462e-06
4.26272e-06
4.19074e-06
4.10014e-06
3.58845e-06
2.28822e-06
9.60026e-08
-1.13805e-06
3.9946e-06
3.99232e-06
3.98544e-06
3.97402e-06
3.95805e-06
3.93762e-06
3.91277e-06
3.88312e-06
3.84926e-06
3.8109e-06
3.76863e-06
3.56679e-06
3.31568e-06
2.76477e-06
2.14488e-06
1.03806e-06
1.19903e-07
-8.03419e-07
-1.08727e-06
2.90017e-06
2.89407e-06
2.87589e-06
2.84591e-06
2.80516e-06
2.75325e-06
2.45705e-06
1.67395e-06
1.67686e-07
-8.96591e-07
2.09678e-06
2.0958e-06
2.09338e-06
2.08902e-06
2.08323e-06
2.07497e-06
2.06529e-06
2.05164e-06
2.03657e-06
2.01872e-06
1.99914e-06
1.91682e-06
1.80837e-06
1.56089e-06
1.26554e-06
6.96288e-07
1.65136e-07
-4.85656e-07
-7.09274e-07
1.48255e-06
1.48098e-06
1.47621e-06
1.46929e-06
1.46259e-06
1.45459e-06
1.33437e-06
9.54756e-07
1.47746e-07
-5.46267e-07
1.12307e-06
1.12266e-06
1.12153e-06
1.11952e-06
1.11679e-06
1.11292e-06
1.10833e-06
1.1018e-06
1.09457e-06
1.08598e-06
1.07653e-06
1.03738e-06
9.85009e-07
8.6336e-07
7.15299e-07
4.16548e-07
1.1957e-07
-2.80878e-07
-4.21178e-07
8.69145e-07
8.67128e-07
8.61294e-07
8.51223e-07
8.36253e-07
8.16863e-07
7.39415e-07
5.42303e-07
9.78785e-08
-3.22802e-07
6.60141e-07
6.59829e-07
6.58725e-07
6.57047e-07
6.54582e-07
6.51915e-07
6.48478e-07
6.45793e-07
6.42391e-07
6.38982e-07
6.35146e-07
6.08027e-07
5.76918e-07
5.05747e-07
4.22291e-07
2.50857e-07
7.63777e-08
-1.69525e-07
-2.57012e-07
5.42019e-07
5.41134e-07
5.38178e-07
5.32886e-07
5.24178e-07
5.13095e-07
4.65135e-07
3.41103e-07
6.3479e-08
-2.08632e-07
4.53685e-07
4.53299e-07
4.52485e-07
4.51082e-07
4.49251e-07
4.47092e-07
4.44503e-07
4.42655e-07
4.40364e-07
4.38316e-07
4.35947e-07
4.17378e-07
3.95219e-07
3.46561e-07
2.89007e-07
1.7245e-07
5.23263e-08
-1.18234e-07
-1.79646e-07
4.10143e-07