# vtk DataFile Version 2.0
./vtk
ASCII

DATASET UNSTRUCTURED_GRID
POINTS 889 double
0 0 0.0
0.5 0 0.0
1 0 0.0
1.5 0 0.0
2 0 0.0
2.5 0 0.0
3 0 0.0
3.5 0 0.0
4 0 0.0
4.5 0 0.0
5 0 0.0
6.9457 0 0.0
8.8914 0 0.0
12.3514 0 0.0
15.8114 0 0.0
21.9642 0 0.0
28.1171 0 0.0
39.0585 0 0.0
50 0 0.0
0 -0.5 0.0
1 -0.5 0.0
2 -0.5 0.0
3 -0.5 0.0
4 -0.5 0.0
5 -0.5 0.0
8.8914 -0.5 0.0
15.8114 -0.5 0.0
28.1171 -0.5 0.0
50 -0.5 0.0
0 -1 0.0
0.5 -1 0.0
1 -1 0.0
1.5 -1 0.0
2 -1 0.0
2.5 -1 0.0
3 -1 0.0
3.5 -1 0.0
4 -1 0.0
4.5 -1 0.0
5 -1 0.0
6.9457 -1 0.0
8.8914 -1 0.0
12.3514 -1 0.0
15.8114 -1 0.0
21.9642 -1 0.0
28.1171 -1 0.0
39.0585 -1 0.0
50 -1 0.0
0 -1.5 0.0
1 -1.5 0.0
2 -1.5 0.0
3 -1.5 0.0
4 -1.5 0.0
5 -1.5 0.0
8.8914 -1.5 0.0
15.8114 -1.5 0.0
28.1171 -1.5 0.0
50 -1.5 0.0
0 -2 0.0
0.5 -2 0.0
1 -2 0.0
1.5 -2 0.0
2 -2 0.0
2.5 -2 0.0
3 -2 0.0
3.5 -2 0.0
4 -2 0.0
4.5 -2 0.0
5 -2 0.0
6.9457 -2 0.0
8.8914 -2 0.0
12.3514 -2 0.0
15.8114 -2 0.0
21.9642 -2 0.0
28.1171 -2 0.0
39.0585 -2 0.0
50 -2 0.0
0 -2.5 0.0
1 -2.5 0.0
2 -2.5 0.0
3 -2.5 0.0
4 -2.5 0.0
5 -2.5 0.0
8.8914 -2.5 0.0
15.8114 -2.5 0.0
28.1171 -2.5 0.0
50 -2.5 0.0
0 -3 0.0
0.5 -3 0.0
1 -3 0.0
1.5 -3 0.0
2 -3 0.0
2.5 -3 0.0
3 -3 0.0
3.5 -3 0.0
4 -3 0.0
4.5 -3 0.0
5 -3 0.0
6.9457 -3 0.0
8.8914 -3 0.0
12.3514 -3 0.0
15.8114 -3 0.0
21.9642 -3 0.0
28.1171 -3 0.0
39.0585 -3 0.0
50 -3 0.0
0 -3.5 0.0
1 -3.5 0.0
2 -3.5 0.0
3 -3.5 0.0
4 -3.5 0.0
5 -3.5 0.0
8.8914 -3.5 0.0
15.8114 -3.5 0.0
28.1171 -3.5 0.0
50 -3.5 0.0
0 -4 0.0
0.5 -4 0.0
1 -4 0.0
1.5 -4 0.0
2 -4 0.0
2.5 -4 0.0
3 -4 0.0
3.5 -4 0.0
4 -4 0.0
4.5 -4 0.0
5 -4 0.0
6.9457 -4 0.0
8.8914 -4 0.0
12.3514 -4 0.0
15.8114 -4 0.0
21.9642 -4 0.0
28.1171 -4 0.0
39.0585 -4 0.0
50 -4 0.0
0 -4.5 0.0
1 -4.5 0.0
2 -4.5 0.0
3 -4.5 0.0
4 -4.5 0.0
5 -4.5 0.0
8.8914 -4.5 0.0
15.8114 -4.5 0.0
28.1171 -4.5 0.0
50 -4.5 0.0
0 -5 0.0
0.5 -5 0.0
1 -5 0.0
1.5 -5 0.0
2 -5 0.0
2.5 -5 0.0
3 -5 0.0
3.5 -5 0.0
4 -5 0.0
4.5 -5 0.0
5 -5 0.0
6.9457 -5 0.0
8.8914 -5 0.0
12.3514 -5 0.0
15.8114 -5 0.0
21.9642 -5 0.0
28.1171 -5 0.0
39.0585 -5 0.0
50 -5 0.0
0 -5.5 0.0
1 -5.5 0.0
2 -5.5 0.0
3 -5.5 0.0
4 -5.5 0.0
5 -5.5 0.0
8.8914 -5.5 0.0
15.8114 -5.5 0.0
28.1171 -5.5 0.0
50 -5.5 0.0
0 -6 0.0
0.5 -6 0.0
1 -6 0.0
1.5 -6 0.0
2 -6 0.0
2.5 -6 0.0
3 -6 0.0
3.5 -6 0.0
4 -6 0.0
4.5 -6 0.0
5 -6 0.0
6.9457 -6 0.0
8.8914 -6 0.0
12.3514 -6 0.0
15.8114 -6 0.0
21.9642 -6 0.0
28.1171 -6 0.0
39.0585 -6 0.0
50 -6 0.0
0 -6.5 0.0
1 -6.5 0.0
2 -6.5 0.0
3 -6.5 0.0
4 -6.5 0.0
5 -6.5 0.0
8.8914 -6.5 0.0
15.8114 -6.5 0.0
28.1171 -6.5 0.0
50 -6.5 0.0
0 -7 0.0
0.5 -7 0.0
1 -7 0.0
1.5 -7 0.0
2 -7 0.0
2.5 -7 0.0
3 -7 0.0
3.5 -7 0.0
4 -7 0.0
4.5 -7 0.0
5 -7 0.0
6.9457 -7 0.0
8.8914 -7 0.0
12.3514 -7 0.0
15.8114 -7 0.0
21.9642 -7 0.0
28.1171 -7 0.0
39.0585 -7 0.0
50 -7 0.0
0 -7.5 0.0
1 -7.5 0.0
2 -7.5 0.0
3 -7.5 0.0
4 -7.5 0.0
5 -7.5 0.0
8.8914 -7.5 0.0
15.8114 -7.5 0.0
28.1171 -7.5 0.0
50 -7.5 0.0
0 -8 0.0
0.5 -8 0.0
1 -8 0.0
1.5 -8 0.0
2 -8 0.0
2.5 -8 0.0
3 -8 0.0
3.5 -8 0.0
4 -8 0.0
4.5 -8 0.0
5 -8 0.0
6.9457 -8 0.0
8.8914 -8 0.0
12.3514 -8 0.0
15.8114 -8 0.0
21.9642 -8 0.0
28.1171 -8 0.0
39.0585 -8 0.0
50 -8 0.0
0 -8.5 0.0
1 -8.5 0.0
2 -8.5 0.0
3 -8.5 0.0
4 -8.5 0.0
5 -8.5 0.0
8.8914 -8.5 0.0
15.8114 -8.5 0.0
28.1171 -8.5 0.0
50 -8.5 0.0
0 -9 0.0
0.5 -9 0.0
1 -9 0.0
1.5 -9 0.0
2 -9 0.0
2.5 -9 0.0
3 -9 0.0
3.5 -9 0.0
4 -9 0.0
4.5 -9 0.0
5 -9 0.0
6.9457 -9 0.0
8.8914 -9 0.0
12.3514 -9 0.0
15.8114 -9 0.0
21.9642 -9 0.0
28.1171 -9 0.0
39.0585 -9 0.0
50 -9 0.0
0 -9.5 0.0
1 -9.5 0.0
2 -9.5 0.0
3 -9.5 0.0
4 -9.5 0.0
5 -9.5 0.0
8.8914 -9.5 0.0
15.8114 -9.5 0.0
28.1171 -9.5 0.0
50 -9.5 0.0
0 -10 0.0
0.5 -10 0.0
1 -10 0.0
1.5 -10 0.0
2 -10 0.0
2.5 -10 0.0
3 -10 0.0
3.5 -10 0.0
4 -10 0.0
4.5 -10 0.0
5 -10 0.0
6.9457 -10 0.0
8.8914 -10 0.0
12.3514 -10 0.0
15.8114 -10 0.0
21.9642 -10 0.0
28.1171 -10 0.0
39.0585 -10 0.0
50 -10 0.0
0 -10.5 0.0
1 -10.5 0.0
2 -10.5 0.0
3 -10.5 0.0
4 -10.5 0.0
5 -10.5 0.0
8.8914 -10.5 0.0
15.8114 -10.5 0.0
28.1171 -10.5 0.0
50 -10.5 0.0
0 -11 0.0
0.5 -11 0.0
1 -11 0.0
1.5 -11 0.0
2 -11 0.0
2.5 -11 0.0
3 -11 0.0
3.5 -11 0.0
4 -11 0.0
4.5 -11 0.0
5 -11 0.0
6.9457 -11 0.0
8.8914 -11 0.0
12.3514 -11 0.0
15.8114 -11 0.0
21.9642 -11 0.0
28.1171 -11 0.0
39.0585 -11 0.0
50 -11 0.0
0 -11.5 0.0
1 -11.5 0.0
2 -11.5 0.0
3 -11.5 0.0
4 -11.5 0.0
5 -11.5 0.0
8.8914 -11.5 0.0
15.8114 -11.5 0.0
28.1171 -11.5 0.0
50 -11.5 0.0
0 -12 0.0
0.5 -12 0.0
1 -12 0.0
1.5 -12 0.0
2 -12 0.0
2.5 -12 0.0
3 -12 0.0
3.5 -12 0.0
4 -12 0.0
4.5 -12 0.0
5 -12 0.0
6.9457 -12 0.0
8.8914 -12 0.0
12.3514 -12 0.0
15.8114 -12 0.0
21.9642 -12 0.0
28.1171 -12 0.0
39.0585 -12 0.0
50 -12 0.0
0 -12.5 0.0
1 -12.5 0.0
2 -12.5 0.0
3 -12.5 0.0
4 -12.5 0.0
5 -12.5 0.0
8.8914 -12.5 0.0
15.8114 -12.5 0.0
28.1171 -12.5 0.0
50 -12.5 0.0
0 -13 0.0
0.5 -13 0.0
1 -13 0.0
1.5 -13 0.0
2 -13 0.0
2.5 -13 0.0
3 -13 0.0
3.5 -13 0.0
4 -13 0.0
4.5 -13 0.0
5 -13 0.0
6.9457 -13 0.0
8.8914 -13 0.0
12.3514 -13 0.0
15.8114 -13 0.0
21.9642 -13 0.0
28.1171 -13 0.0
39.0585 -13 0.0
50 -13 0.0
0 -13.5 0.0
1 -13.5 0.0
2 -13.5 0.0
3 -13.5 0.0
4 -13.5 0.0
5 -13.5 0.0
8.8914 -13.5 0.0
15.8114 -13.5 0.0
28.1171 -13.5 0.0
50 -13.5 0.0
0 -14 0.0
0.5 -14 0.0
1 -14 0.0
1.5 -14 0.0
2 -14 0.0
2.5 -14 0.0
3 -14 0.0
3.5 -14 0.0
4 -14 0.0
4.5 -14 0.0
5 -14 0.0
6.9457 -14 0.0
8.8914 -14 0.0
12.3514 -14 0.0
15.8114 -14 0.0
21.9642 -14 0.0
28.1171 -14 0.0
39.0585 -14 0.0
50 -14 0.0
0 -14.5 0.0
1 -14.5 0.0
2 -14.5 0.0
3 -14.5 0.0
4 -14.5 0.0
5 -14.5 0.0
8.8914 -14.5 0.0
15.8114 -14.5 0.0
28.1171 -14.5 0.0
50 -14.5 0.0
0 -15 0.0
0.5 -15 0.0
1 -15 0.0
1.5 -15 0.0
2 -15 0.0
2.5 -15 0.0
3 -15 0.0
3.5 -15 0.0
4 -15 0.0
4.5 -15 0.0
5 -15 0.0
6.9457 -15 0.0
8.8914 -15 0.0
12.3514 -15 0.0
15.8114 -15 0.0
21.9642 -15 0.0
28.1171 -15 0.0
39.0585 -15 0.0
50 -15 0.0
0 -16.5 0.0
1 -16.5 0.0
2 -16.5 0.0
3 -16.5 0.0
4 -16.5 0.0
5 -16.5 0.0
8.8914 -16.5 0.0
15.8114 -16.5 0.0
28.1171 -16.5 0.0
50 -16.5 0.0
0 -18 0.0
0.5 -18 0.0
1 -18 0.0
1.5 -18 0.0
2 -18 0.0
2.5 -18 0.0
3 -18 0.0
3.5 -18 0.0
4 -18 0.0
4.5 -18 0.0
5 -18 0.0
6.9457 -18 0.0
8.8914 -18 0.0
12.3514 -18 0.0
15.8114 -18 0.0
21.9642 -18 0.0
28.1171 -18 0.0
39.0585 -18 0.0
50 -18 0.0
0 -19.5 0.0
1 -19.5 0.0
2 -19.5 0.0
3 -19.5 0.0
4 -19.5 0.0
5 -19.5 0.0
8.8914 -19.5 0.0
15.8114 -19.5 0.0
28.1171 -19.5 0.0
50 -19.5 0.0
0 -21 0.0
0.5 -21 0.0
1 -21 0.0
1.5 -21 0.0
2 -21 0.0
2.5 -21 0.0
3 -21 0.0
3.5 -21 0.0
4 -21 0.0
4.5 -21 0.0
5 -21 0.0
6.9457 -21 0.0
8.8914 -21 0.0
12.3514 -21 0.0
15.8114 -21 0.0
21.9642 -21 0.0
28.1171 -21 0.0
39.0585 -21 0.0
50 -21 0.0
0 -22.5 0.0
1 -22.5 0.0
2 -22.5 0.0
3 -22.5 0.0
4 -22.5 0.0
5 -22.5 0.0
8.8914 -22.5 0.0
15.8114 -22.5 0.0
28.1171 -22.5 0.0
50 -22.5 0.0
0 -24 0.0
0.5 -24 0.0
1 -24 0.0
1.5 -24 0.0
2 -24 0.0
2.5 -24 0.0
3 -24 0.0
3.5 -24 0.0
4 -24 0.0
4.5 -24 0.0
5 -24 0.0
6.9457 -24 0.0
8.8914 -24 0.0
12.3514 -24 0.0
15.8114 -24 0.0
21.9642 -24 0.0
28.1171 -24 0.0
39.0585 -24 0.0
50 -24 0.0
0 -25.5 0.0
1 -25.5 0.0
2 -25.5 0.0
3 -25.5 0.0
4 -25.5 0.0
5 -25.5 0.0
8.8914 -25.5 0.0
15.8114 -25.5 0.0
28.1171 -25.5 0.0
50 -25.5 0.0
0 -27 0.0
0.5 -27 0.0
1 -27 0.0
1.5 -27 0.0
2 -27 0.0
2.5 -27 0.0
3 -27 0.0
3.5 -27 0.0
4 -27 0.0
4.5 -27 0.0
5 -27 0.0
6.9457 -27 0.0
8.8914 -27 0.0
12.3514 -27 0.0
15.8114 -27 0.0
21.9642 -27 0.0
28.1171 -27 0.0
39.0585 -27 0.0
50 -27 0.0
0 -28.5 0.0
1 -28.5 0.0
2 -28.5 0.0
3 -28.5 0.0
4 -28.5 0.0
5 -28.5 0.0
8.8914 -28.5 0.0
15.8114 -28.5 0.0
28.1171 -28.5 0.0
50 -28.5 0.0
0 -30 0.0
0.5 -30 0.0
1 -30 0.0
1.5 -30 0.0
2 -30 0.0
2.5 -30 0.0
3 -30 0.0
3.5 -30 0.0
4 -30 0.0
4.5 -30 0.0
5 -30 0.0
6.9457 -30 0.0
8.8914 -30 0.0
12.3514 -30 0.0
15.8114 -30 0.0
21.9642 -30 0.0
28.1171 -30 0.0
39.0585 -30 0.0
50 -30 0.0
0 -31.5 0.0
1 -31.5 0.0
2 -31.5 0.0
3 -31.5 0.0
4 -31.5 0.0
5 -31.5 0.0
8.8914 -31.5 0.0
15.8114 -31.5 0.0
28.1171 -31.5 0.0
50 -31.5 0.0
0 -33 0.0
0.5 -33 0.0
1 -33 0.0
1.5 -33 0.0
2 -33 0.0
2.5 -33 0.0
3 -33 0.0
3.5 -33 0.0
4 -33 0.0
4.5 -33 0.0
5 -33 0.0
6.9457 -33 0.0
8.8914 -33 0.0
12.3514 -33 0.0
15.8114 -33 0.0
21.9642 -33 0.0
28.1171 -33 0.0
39.0585 -33 0.0
50 -33 0.0
0 -34.5 0.0
1 -34.5 0.0
2 -34.5 0.0
3 -34.5 0.0
4 -34.5 0.0
5 -34.5 0.0
8.8914 -34.5 0.0
15.8114 -34.5 0.0
28.1171 -34.5 0.0
50 -34.5 0.0
0 -36 0.0
0.5 -36 0.0
1 -36 0.0
1.5 -36 0.0
2 -36 0.0
2.5 -36 0.0
3 -36 0.0
3.5 -36 0.0
4 -36 0.0
4.5 -36 0.0
5 -36 0.0
6.9457 -36 0.0
8.8914 -36 0.0
12.3514 -36 0.0
15.8114 -36 0.0
21.9642 -36 0.0
28.1171 -36 0.0
39.0585 -36 0.0
50 -36 0.0
0 -37.5 0.0
1 -37.5 0.0
2 -37.5 0.0
3 -37.5 0.0
4 -37.5 0.0
5 -37.5 0.0
8.8914 -37.5 0.0
15.8114 -37.5 0.0
28.1171 -37.5 0.0
50 -37.5 0.0
0 -39 0.0
0.5 -39 0.0
1 -39 0.0
1.5 -39 0.0
2 -39 0.0
2.5 -39 0.0
3 -39 0.0
3.5 -39 0.0
4 -39 0.0
4.5 -39 0.0
5 -39 0.0
6.9457 -39 0.0
8.8914 -39 0.0
12.3514 -39 0.0
15.8114 -39 0.0
21.9642 -39 0.0
28.1171 -39 0.0
39.0585 -39 0.0
50 -39 0.0
0 -40.5 0.0
1 -40.5 0.0
2 -40.5 0.0
3 -40.5 0.0
4 -40.5 0.0
5 -40.5 0.0
8.8914 -40.5 0.0
15.8114 -40.5 0.0
28.1171 -40.5 0.0
50 -40.5 0.0
0 -42 0.0
0.5 -42 0.0
1 -42 0.0
1.5 -42 0.0
2 -42 0.0
2.5 -42 0.0
3 -42 0.0
3.5 -42 0.0
4 -42 0.0
4.5 -42 0.0
5 -42 0.0
6.9457 -42 0.0
8.8914 -42 0.0
12.3514 -42 0.0
15.8114 -42 0.0
21.9642 -42 0.0
28.1171 -42 0.0
39.0585 -42 0.0
50 -42 0.0
0 -43.5 0.0
1 -43.5 0.0
2 -43.5 0.0
3 -43.5 0.0
4 -43.5 0.0
5 -43.5 0.0
8.8914 -43.5 0.0
15.8114 -43.5 0.0
28.1171 -43.5 0.0
50 -43.5 0.0
0 -45 0.0
0.5 -45 0.0
1 -45 0.0
1.5 -45 0.0
2 -45 0.0
2.5 -45 0.0
3 -45 0.0
3.5 -45 0.0
4 -45 0.0
4.5 -45 0.0
5 -45 0.0
6.9457 -45 0.0
8.8914 -45 0.0
12.3514 -45 0.0
15.8114 -45 0.0
21.9642 -45 0.0
28.1171 -45 0.0
39.0585 -45 0.0
50 -45 0.0
0 -50.5 0.0
1 -50.5 0.0
2 -50.5 0.0
3 -50.5 0.0
4 -50.5 0.0
5 -50.5 0.0
8.8914 -50.5 0.0
15.8114 -50.5 0.0
28.1171 -50.5 0.0
50 -50.5 0.0
0 -56 0.0
0.5 -56 0.0
1 -56 0.0
1.5 -56 0.0
2 -56 0.0
2.5 -56 0.0
3 -56 0.0
3.5 -56 0.0
4 -56 0.0
4.5 -56 0.0
5 -56 0.0
6.9457 -56 0.0
8.8914 -56 0.0
12.3514 -56 0.0
15.8114 -56 0.0
21.9642 -56 0.0
28.1171 -56 0.0
39.0585 -56 0.0
50 -56 0.0
0 -61.5 0.0
1 -61.5 0.0
2 -61.5 0.0
3 -61.5 0.0
4 -61.5 0.0
5 -61.5 0.0
8.8914 -61.5 0.0
15.8114 -61.5 0.0
28.1171 -61.5 0.0
[...]
POINT_DATA 889
SCALARS Displacement_R double 1
LOOKUP_TABLE default
0
-2.5809e-05
-5.13159e-05
-7.62308e-05
-0.00010024
-0.000123264
-0.000144948
-0.000165542
-0.000183842
-0.000198413
-0.000209437
-0.000221119
-0.000212051
-0.000187992
-0.000160455
-0.00012501
-9.07383e-05
-4.39964e-05
0
0
-3.58969e-05
-6.97688e-05
-9.94291e-05
-0.000121806
-0.000137512
-0.000162252
-0.000130146
-7.6714e-05
0
0
-1.12145e-05
-2.21982e-05
-3.27907e-05
-4.27107e-05
-5.17442e-05
-5.95343e-05
-6.61561e-05
-7.13281e-05
-7.50282e-05
-8.09741e-05
-0.000105025
-0.000113868
-0.00010963
-0.000100253
-8.24686e-05
-6.2785e-05
-3.08328e-05
0
0
-9.92127e-06
-1.86552e-05
-2.51192e-05
-2.91138e-05
-3.50634e-05
-6.77223e-05
-7.03673e-05
-4.87918e-05
0
0
6.49335e-07
1.36629e-06
2.16423e-06
3.13909e-06
4.34166e-06
5.67142e-06
6.93948e-06
7.66132e-06
7.30252e-06
5.66393e-06
-8.93082e-06
-2.2905e-05
-3.51471e-05
-4.07709e-05
-4.11202e-05
-3.48944e-05
-1.79481e-05
0
0
1.21204e-05
2.3858e-05
3.44817e-05
4.23472e-05
4.48425e-05
2.10648e-05
-1.1527e-05
-2.1092e-05
0
0
1.15742e-05
2.29803e-05
3.40857e-05
4.46836e-05
5.46178e-05
6.35953e-05
7.13369e-05
7.75353e-05
8.19608e-05
8.46418e-05
8.02325e-05
6.47975e-05
3.74936e-05
1.74425e-05
-5.1846e-07
-7.3701e-06
-5.23179e-06
0
0
3.45775e-05
6.7023e-05
9.49862e-05
0.000115971
0.000127821
0.000109172
4.59493e-05
6.12295e-06
0
0
2.39703e-05
4.75607e-05
7.04741e-05
9.22636e-05
0.000112535
0.00013085
0.000146777
0.00016009
0.000170373
0.000177467
0.000176797
0.000154423
0.000110008
7.41809e-05
3.97141e-05
1.95531e-05
7.41752e-06
0
0
4.67696e-05
9.06029e-05
0.000128433
0.000157333
0.000175052
0.000161634
8.47211e-05
2.74136e-05
0
0
2.29173e-05
4.54449e-05
6.72795e-05
8.79919e-05
0.000107296
0.000124808
0.000140177
0.000153091
0.000163561
0.000171503
0.000180365
0.000166689
0.000128391
9.48092e-05
5.72213e-05
3.52313e-05
1.50255e-05
0
0
4.37917e-05
8.48284e-05
0.000120446
0.000148396
0.000167399
0.000170018
0.000103791
4.27775e-05
0
0
2.11665e-05
4.19835e-05
6.21729e-05
8.13928e-05
9.93704e-05
0.000115814
0.000130479
0.000143255
0.000154004
0.000162772
0.000178027
0.000172002
0.000142783
0.000112404
7.46114e-05
5.03222e-05
2.2624e-05
0
0
4.01246e-05
7.78899e-05
0.000111109
0.000138097
0.000157935
0.000173273
0.000120477
5.77936e-05
0
0
1.9296e-05
3.83019e-05
5.67818e-05
7.44569e-05
9.1108e-05
0.000106524
0.000120525
0.000132999
0.000143866
0.000153105
0.000173016
0.000173823
0.000154178
0.000128313
9.18236e-05
6.52981e-05
3.02231e-05
0
0
3.65705e-05
7.12151e-05
0.000102191
0.000128177
0.000148392
0.000174164
0.000135869
7.28144e-05
0
0
1.76022e-05
3.49702e-05
5.1914e-05
6.82152e-05
8.3693e-05
9.81859e-05
0.000111545
0.000123682
0.000134525
0.000144034
0.000167558
0.000174285
0.000163986
0.000143354
0.00010909
8.03952e-05
3.78714e-05
0
0
3.35314e-05
6.55247e-05
9.4592e-05
0.000119665
0.000140059
0.000174581
0.000150804
8.80526e-05
0
0
1.62281e-05
3.22706e-05
4.79753e-05
6.31686e-05
7.7706e-05
9.14568e-05
0.0001043
0.000116157
0.000126964
0.000136678
0.000163206
0.000175078
0.000173559
0.000158372
0.000126724
9.58047e-05
4.56252e-05
0
0
3.12102e-05
6.11958e-05
8.8844e-05
0.000113277
0.000133892
0.000176062
0.000166152
0.000103692
0
0
1.52546e-05
3.03611e-05
4.51975e-05
5.96249e-05
7.3526e-05
8.67937e-05
9.93268e-05
0.000111057
0.000121927
0.000131891
0.000161185
0.000177622
0.000184189
0.000174256
0.000145086
0.000111704
5.3542e-05
0
0
2.97438e-05
5.85012e-05
8.53668e-05
0.000109605
0.000130682
0.000179953
0.000182823
0.000119908
0
0
1.47461e-05
2.93716e-05
4.37773e-05
5.78493e-05
7.14898e-05
8.461e-05
9.71225e-05
0.000108968
0.000120091
0.000130448
0.000162599
0.000183222
0.000197141
0.000191931
0.000164565
0.000128264
6.16792e-05
0
0
2.92695e-05
5.77204e-05
8.45942e-05
0.000109256
0.000131216
0.000187556
0.000201762
0.000136862
0
0
1.47797e-05
2.94574e-05
4.3948e-05
5.81545e-05
7.19913e-05
8.53827e-05
9.82529e-05
0.000110543
0.000122204
0.000133186
0.0001686
0.000193208
0.000213696
0.000212357
0.00018557
0.000145641
7.0094e-05
0
0
2.99684e-05
5.92174e-05
8.70736e-05
0.000112959
0.000136413
0.000200265
0.000223946
0.000154704
0
0
1.54637e-05
3.0834e-05
4.60326e-05
6.09705e-05
7.55668e-05
8.97499e-05
0.000103453
0.000116624
0.000129193
0.000141137
0.000180543
0.000209069
0.000235191
0.00023653
0.000208525
0.00016397
7.88451e-05
0
0
3.21011e-05
6.35064e-05
9.35573e-05
0.000121675
0.000147411
0.000219694
0.000250375
0.000173539
0
0
1.69562e-05
3.38168e-05
5.05004e-05
6.69171e-05
8.29836e-05
9.86273e-05
0.000113764
0.000128338
0.000142284
0.00015557
0.000200163
0.000232585
0.000263072
0.000265452
0.000233884
0.000183328
8.79989e-05
0
0
3.60481e-05
7.13346e-05
0.00010514
0.000136837
0.000165903
0.000248065
0.000282073
0.000193384
0
0
1.94881e-05
3.88654e-05
5.80329e-05
7.68902e-05
9.53352e-05
0.000113288
0.000130645
0.000147356
0.000163356
0.000178586
0.000229347
0.00026651
0.000298815
0.000300156
0.000262168
0.000203671
9.76413e-05
0
0
3.35603e-05
6.64881e-05
9.81743e-05
0.000128082
0.000155736
0.000237047
0.000278252
0.000197496
0
0
1.46187e-05
2.91742e-05
4.36093e-05
5.78659e-05
7.18801e-05
8.56087e-05
9.89828e-05
0.000111974
0.00012452
0.000136595
0.000178275
0.000211466
0.000246227
0.00025684
0.000236416
0.000190124
9.3499e-05
0
0
2.55606e-05
5.07397e-05
7.51689e-05
9.85087e-05
0.000120454
0.000188899
0.000236902
0.000182113
0
0
1.12681e-05
2.24959e-05
3.36484e-05
4.4688e-05
5.55763e-05
6.62822e-05
7.67669e-05
8.70058e-05
9.69629e-05
0.000106622
0.000140921
0.000169298
0.000202905
0.000217933
0.00020913
0.000173414
8.75157e-05
0
0
1.99137e-05
3.95844e-05
5.87753e-05
7.72665e-05
9.4867e-05
0.000151954
0.000200339
0.000164539
0
0
8.86011e-06
1.76943e-05
2.648e-05
3.51923e-05
4.38063e-05
5.23018e-05
6.06538e-05
6.8845e-05
7.68445e-05
8.46438e-05
0.000112744
0.000136758
0.000167468
0.000183893
0.000182484
0.000155362
8.03538e-05
0
0
1.57882e-05
3.14143e-05
4.67197e-05
6.15527e-05
7.57789e-05
0.000123235
0.000168683
0.000146327
0
0
7.07106e-06
1.41243e-05
2.11445e-05
2.81142e-05
3.50169e-05
4.18375e-05
4.85603e-05
5.51709e-05
6.16512e-05
6.79922e-05
9.10942e-05
0.000111278
0.000138465
0.000154619
0.000157633
0.000137268
7.25843e-05
0
0
1.26736e-05
2.52345e-05
3.75719e-05
4.95789e-05
6.11583e-05
0.000100584
0.000141626
0.00012853
0
0
5.70335e-06
1.13941e-05
1.70616e-05
2.26933e-05
2.82776e-05
3.38036e-05
3.926e-05
4.46366e-05
4.9921e-05
5.51054e-05
7.41447e-05
9.10521e-05
0.000114663
0.000129691
0.000135127
0.000119954
6.46677e-05
0
0
1.02661e-05
2.04513e-05
3.04757e-05
4.0262e-05
4.97381e-05
8.24904e-05
0.00011867
0.000111788
0
0
4.63597e-06
9.26277e-06
1.38726e-05
1.84564e-05
2.30057e-05
2.75124e-05
3.19682e-05
3.63654e-05
4.06954e-05
4.4952e-05
6.06775e-05
7.48098e-05
9.50657e-05
0.000108587
0.00011515
0.000103898
5.69465e-05
0
0
8.37062e-06
1.66816e-05
2.48739e-05
3.28902e-05
4.06759e-05
6.78872e-05
9.92815e-05
9.64491e-05
0
0
3.78946e-06
7.57201e-06
1.1342e-05
1.50924e-05
1.88172e-05
2.25101e-05
2.61649e-05
2.97759e-05
3.33374e-05
3.68426e-05
4.98512e-05
6.1647e-05
7.88808e-05
9.07873e-05
9.76608e-05
8.93393e-05
4.96548e-05
0
0
6.85764e-06
1.36702e-05
2.0393e-05
2.69827e-05
3.33975e-05
5.60071e-05
8.29543e-05
8.26651e-05
0
0
3.11001e-06
6.21494e-06
9.30998e-06
1.23905e-05
1.54511e-05
1.84879e-05
2.14949e-05
2.44683e-05
2.7402e-05
3.02967e-05
4.107e-05
5.09053e-05
6.54836e-05
7.58143e-05
8.25044e-05
7.63555e-05
4.2937e-05
0
0
5.63614e-06
1.1238e-05
1.67708e-05
2.22017e-05
2.74978e-05
4.62837e-05
6.92384e-05
7.04548e-05
0
0
2.55945e-06
5.11438e-06
7.6619e-06
1.01968e-05
1.27183e-05
1.52195e-05
1.76996e-05
2.01529e-05
2.25837e-05
2.49692e-05
3.38981e-05
4.20904e-05
5.43758e-05
6.32514e-05
6.94659e-05
6.49182e-05
3.68693e-05
0
0
4.64637e-06
9.2633e-06
1.38217e-05
1.83003e-05
2.26743e-05
3.82917e-05
5.77395e-05
5.97384e-05
0
0
2.10765e-06
4.21281e-06
6.31338e-06
8.40679e-06
1.04873e-05
1.25565e-05
1.45929e-05
1.66145e-05
1.8596e-05
2.05949e-05
2.80094e-05
3.48333e-05
4.51432e-05
5.27324e-05
5.83318e-05
5.49031e-05
3.14859e-05
0
0
2.99065e-06
5.96379e-06
8.90573e-06
1.18153e-05
1.46565e-05
2.47885e-05
3.77262e-05
4.02049e-05
0
0
1.09228e-06
2.18206e-06
3.2601e-06
4.33085e-06
5.37707e-06
6.41021e-06
7.40001e-06
8.36914e-06
9.44187e-06
1.04021e-05
1.41189e-05
1.76358e-05
2.27571e-05
2.68082e-05
3.01337e-05
2.91035e-05
1.69278e-05
0
0
1.49591e-06
2.99815e-06
4.51002e-06
6.03033e-06
7.34587e-06
1.21073e-05
1.88868e-05
2.09074e-05
0
0
-3.77215e-08
-7.47018e-08
-1.24595e-07
-1.71739e-07
-2.39126e-07
-3.00721e-07
-3.7764e-07
-4.43561e-07
0
7.63704e-07
4.08068e-06
7.09777e-06
1.05157e-05
1.31207e-05
1.52613e-05
1.4985e-05
8.81733e-06
0
0
7.58e-07
1.53469e-06
2.34162e-06
3.17639e-06
3.72692e-06
5.77795e-06
9.3571e-06
1.07275e-05
0
1.50091e-09
3.22126e-09
4.97633e-09
-9.86569e-09
-2.68495e-08
-7.31208e-08
-1.23641e-07
-2.09487e-07
-3.0274e-07
0
3.67109e-07
2.1211e-06
3.77325e-06
5.3636e-06
6.69688e-06
7.80554e-06
7.72092e-06
4.57755e-06
0
0
4.03858e-07
8.17086e-07
1.24715e-06
1.70177e-06
2.00206e-06
3.04787e-06
4.8309e-06
5.51678e-06
0
3.38356e-10
4.55379e-10
4.27325e-10
-5.58057e-09
-1.197e-08
-3.08937e-08
-5.01079e-08
-9.12091e-08
-1.3196e-07
0
1.96435e-07
1.08199e-06
1.88251e-06
2.69548e-06
3.31102e-06
3.83875e-06
3.77056e-06
2.24245e-06
0
0
1.66914e-07
3.32805e-07
4.98753e-07
6.72535e-07
8.0064e-07
1.22624e-06
1.86844e-06
2.10001e-06
0
0
0
0
0
0
0
0
0
0
0
0
0
0
0
0
0
0
0
0
SCALARS Displacement_Z double 1
LOOKUP_TABLE default
-0.00283721
-0.00283314
-0.00282082
-0.00280047
-0.00277209
-0.0027357
-0.00269135
-0.0026392
-0.00257733
-0.00250502
-0.00241136
-0.00212593
-0.00190427
-0.00158549
-0.00134123
-0.00102343
-0.000805929
-0.000580498
-0.000510902
-0.00284534
-0.00282857
-0.00277856
-0.00269612
-0.00257927
-0.00241943
-0.00190814
-0.00134213
-0.000805542
-0.000509926
-0.00284613
-0.00284182
-0.00282899
-0.00280769
-0.002778
-0.00273995
-0.00269355
-0.00263891
-0.00257587
-0.00250282
-0.00242423
-0.00214188
-0.0019117
-0.00158934
-0.00134307
-0.00102362
-0.000805258
-0.000579137
-0.000509102
-0.00284084
-0.00282346
-0.00277168
-0.00268637
-0.00256827
-0.00242467
-0.0019143
-0.00134391
-0.000805053
-0.000508437
-0.00283041
-0.00282601
-0.00281289
-0.00279112
-0.00276081
-0.0027221
-0.00267528
-0.00262081
-0.00255927
-0.00249194
-0.00242135
-0.00214958
-0.00191614
-0.00159241
-0.00134479
-0.00102417
-0.000804941
-0.000578261
-0.000507924
-0.00281554
-0.00279807
-0.00274618
-0.00266151
-0.00254812
-0.00241546
-0.00191701
-0.00134551
-0.000804887
-0.000507548
-0.00279625
-0.00279191
-0.002779
-0.00275758
-0.00272787
-0.00269013
-0.00264491
-0.00259281
-0.00253487
-0.00247217
-0.00240629
-0.00214725
-0.00191696
-0.00159439
-0.0013463
-0.00102507
-0.00080492
-0.000577876
-0.000507322
-0.0027723
-0.00275546
-0.00270561
-0.00262501
-0.00251873
-0.00239481
-0.00191586
-0.0013469
-0.000805014
-0.000507238
-0.00274264
-0.00273857
-0.00272637
-0.00270621
-0.00267827
-0.00264296
-0.00260076
-0.0025524
-0.00249878
-0.00244098
-0.00238035
-0.00213616
-0.00191414
-0.0015955
-0.00134754
-0.00102631
-0.000805195
-0.000577965
-0.000507301
-0.00268468
-0.00266953
-0.00262485
-0.00255326
-0.0024592
-0.0023509
-0.00190869
-0.0013481
-0.000805449
-0.000507542
-0.00262906
-0.00262552
-0.00261501
-0.00259765
-0.00257371
-0.00254352
-0.00250763
-0.00246659
-0.00242125
-0.00237233
-0.00232105
-0.00210634
-0.00190223
-0.00159469
-0.00134845
-0.00102814
-0.000805713
-0.000578605
-0.000507935
-0.00257609
-0.00256311
-0.00252498
-0.00246407
-0.00238448
-0.00229189
-0.00189507
-0.00134857
-0.000805947
-0.000508417
-0.00252591
-0.0025229
-0.00251393
-0.00249914
-0.00247876
-0.0024531
-0.00242257
-0.00238773
-0.00234911
-0.00230727
-0.00226299
-0.00207361
-0.00188697
-0.0015914
-0.00134839
-0.00102944
-0.000806197
-0.000579638
-0.000509046
-0.00247852
-0.00246747
-0.00243499
-0.0023831
-0.00231504
-0.00223493
-0.00187819
-0.00134791
-0.000806439
-0.000509786
-0.00243388
-0.00243131
-0.00242366
-0.00241103
-0.00239362
-0.00237168
-0.00234556
-0.00231563
-0.00228234
-0.00224609
-0.00220741
-0.00203947
-0.0018686
-0.00158559
-0.00134706
-0.00103011
-0.000806702
-0.000581039
-0.000510671
-0.0023918
-0.00238233
-0.00235447
-0.00230983
-0.0022509
-0.00218079
-0.00185847
-0.00134585
-0.00080696
-0.000511673
-0.00235216
-0.00234994
-0.00234335
-0.00233246
-0.00231744
-0.00229847
-0.00227582
-0.0022498
-0.00222073
-0.00218893
-0.00215481
-0.00200469
-0.00184764
-0.00157731
-0.00134423
-0.00103005
-0.000807244
-0.000582805
-0.00051282
-0.00231471
-0.00230651
-0.00228231
-0.0022434
-0.0021917
-0.00212964
-0.00183639
-0.00134222
-0.000807526
-0.000514088
-0.00227929
-0.00227736
-0.00227161
-0.00226209
-0.00224894
-0.00223231
-0.00221241
-0.00218946
-0.00216374
-0.0021355
-0.00210506
-0.00196965
-0.00182453
-0.00156664
-0.00133977
-0.00102923
-0.000807838
-0.000584944
-0.000515501
-0.00224564
-0.00223842
-0.00221711
-0.0021827
-0.00213672
-0.00208113
-0.0018123
-0.00133692
-0.000808153
-0.000517036
-0.00221355
-0.00221184
-0.00220674
-0.0021983
-0.00218663
-0.00217183
-0.00215409
-0.00213359
-0.00211053
-0.00208514
-0.00205767
-0.00193437
-0.00179949
-0.00155366
-0.00133362
-0.00102763
-0.000808504
-0.000587467
-0.000518719
-0.00218276
-0.00217632
-0.00215726
-0.00212641
-0.002085
-0.00203463
-0.00178632
-0.00132992
-0.000808864
-0.000520527
-0.00215303
-0.0021515
-0.00214691
-0.00213932
-0.00212881
-0.00211547
-0.00209945
-0.00208089
-0.00205998
-0.00203689
-0.00201183
-0.00189859
-0.00177257
-0.0015384
-0.00132579
-0.00102527
-0.000809268
-0.000590396
-0.000522486
-0.00212409
-0.00211826
-0.002101
-0.00207299
-0.00203527
-0.00198918
-0.00175841
-0.00132126
-0.000809688
-0.000524573
-0.00209565
-0.00209425
-0.00209008
-0.00208318
-0.0020736
-0.00206144
-0.00204681
-0.00202984
-0.00201069
-0.0019895
-0.00196647
-0.00186176
-0.00174362
-0.00152083
-0.00131633
-0.00102221
-0.000810164
-0.000593754
-0.000526814
-0.00206741
-0.00206209
-0.00204631
-0.00202065
-0.001986
-0.00194353
-0.00172833
-0.00131104
-0.000810667
-0.000529189
-0.00203904
-0.00203776
-0.00203394
-0.00202761
-0.00201883
-0.00200766
-0.00199422
-0.00197861
-0.00196097
-0.00194141
-0.00192014
-0.00182308
-0.0017123
-0.00150089
-0.00130538
-0.00101855
-0.000811237
-0.00059757
-0.000531723
-0.00201018
-0.00200529
-0.00199081
-0.00196723
-0.0019353
-0.00189606
-0.00169567
-0.0012994
-0.000811849
-0.000534401
-0.0019804
-0.00197923
-0.00197573
-0.00196993
-0.00196188
-0.00195164
-0.0019393
-0.00192496
-0.00190872
-0.00189071
-0.001871
-0.00178139
-0.00167818
-0.0014785
-0.0012931
-0.00101444
-0.000812544
-0.000601874
-0.000537241
-0.00194925
-0.0019448
-0.00193159
-0.00191005
-0.00188084
-0.00184482
-0.00165992
-0.00128649
-0.000813298
-0.000540246
-0.00191619
-0.00191516
-0.00191199
-0.00190676
-0.00189946
-0.00189021
-0.00187902
-0.00186603
-0.00185128
-0.0018349
-0.001817
-0.0017351
-0.00164066
-0.00145361
-0.00127966
-0.0010101
-0.000814153
-0.000606691
-0.000543417
-0.001776
-0.00177262
-0.0017625
-0.00174594
-0.00172335
-0.00169526
-0.00154856
-0.00123445
-0.000803411
-0.000544721
-0.00165322
-0.00165249
-0.00165042
-0.00164693
-0.00164212
-0.00163595
-0.00162852
-0.0016198
-0.0016099
-0.00159885
-0.00158673
-0.00153045
-0.00146298
-0.00132591
-0.00118897
-0.000964522
-0.000791841
-0.000604275
-0.000545578
-0.00154453
-0.00154222
-0.00153535
-0.00152405
-0.00150857
-0.00148921
-0.00138458
-0.0011451
-0.000779851
-0.00054594
-0.00144774
-0.00144725
-0.00144581
-0.0014434
-0.00144005
-0.00143577
-0.00143059
-0.0014245
-0.00141758
-0.00140984
-0.00140133
-0.0013611
-0.00131195
-0.00120954
-0.00110185
-0.00091649
-0.000767107
-0.000599262
-0.000545747
-0.0013609
-0.00135927
-0.00135441
-0.0013464
-0.00133539
-0.0013215
-0.00124498
-0.00106042
-0.000753998
-0.000544996
-0.00128255
-0.0012822
-0.00128116
-0.00127943
-0.00127702
-0.00127393
-0.00127019
-0.00126579
-0.00126077
-0.00125514
-0.00124892
-0.00121942
-0.00118288
-0.00110503
-0.00102008
-0.000867839
-0.000740267
-0.000591633
-0.000543607
-0.00121142
-0.00121023
-0.00120668
-0.00120082
-0.00119272
-0.0011825
-0.00112528
-0.000981578
-0.00072628
-0.000541642
-0.00114657
-0.00114631
-0.00114555
-0.00114426
-0.00114248
-0.00114019
-0.00113742
-0.00113415
-0.00113041
-0.00112621
-0.00112157
-0.00109944
-0.00107173
-0.00101172
-0.000944376
-0.000819764
-0.000711814
-0.000581482
-0.000538989
-0.00108715
-0.00108626
-0.0010836
-0.0010792
-0.00107312
-0.00106541
-0.00102183
-0.000908921
-0.000697202
-0.000535767
-0.00103249
-0.00103229
-0.00103171
-0.00103075
-0.0010294
-0.00102766
-0.00102556
-0.00102308
-0.00102024
-0.00101705
-0.00101351
-0.000996607
-0.000975266
-0.00092846
-0.000874802
-0.000772989
-0.000682244
-0.000568978
-0.000531843
-0.000982001
-0.000981322
-0.000979292
-0.000975931
-0.000971274
-0.000965364
-0.000931669
-0.000842267
-0.000667232
-0.000527374
-0.000935206
-0.000935056
-0.000934609
-0.000933864
-0.000932825
-0.000931492
-0.000929871
-0.000927962
-0.000925773
-0.000923307
-0.000920572
-0.000907466
-0.000890821
-0.000853964
-0.000811013
-0.000727897
-0.000651981
-0.000554332
-0.000522218
-0.000891672
-0.000891147
-0.000889574
-0.000886968
-0.000883353
-0.000878758
-0.0008524
-0.000781158
-0.000636747
-0.000516555
-0.000851049
-0.000850932
-0.000850584
-0.000850003
-0.000849193
-0.000848154
-0.000846889
-0.000845399
-0.000843689
-0.000841762
-0.000839623
-0.000829349
-0.000816239
-0.000786995
-0.000752481
-0.00068464
-0.000621359
-0.000537771
-0.00051024
-0.000813011
-0.0008126
-0.000811368
-0.000809325
-0.000806488
-0.000802878
-0.000782071
-0.000725017
-0.000606034
-0.000503463
-0.000777294
-0.000777202
-0.000776928
-0.000776472
-0.000775835
-0.000775016
-0.000774021
-0.000772847
-0.0007715
-0.000769979
-0.00076829
-0.000760167
-0.000749763
-0.000726425
-0.000698608
-0.000643225
-0.000590617
-0.000519519
-0.000496082
-0.000743651
-0.000743325
-0.000742352
-0.000740738
-0.000738496
-0.000735635
-0.0007191
-0.000673238
-0.000575291
-0.000488288
-0.000711875
-0.000711801
-0.000711585
-0.000711222
-0.000710718
-0.00071007
-0.00070928
-0.000708348
-0.000707277
-0.000706073
-0.000704732
-0.000698265
-0.000689965
-0.000671254
-0.000648797
-0.000603569
-0.000559914
-0.000499793
-0.000479946
-0.00068176
-0.000681507
-0.000680743
-0.000679465
-0.000677673
-0.000675407
-0.000662203
-0.000625235
-0.000544642
-0.000471243
-0.000653161
-0.00065311
-0.000652938
-0.000652659
-0.00065226
-0.000651758
-0.00065114
-0.000650398
-0.000649545
-0.000648574
-0.000647501
-0.0006423
-0.000635701
-0.000620612
-0.000602479
-0.000565549
-0.000529347
-0.000478788
-0.000462052
-0.000558951
-0.000558787
-0.000558307
-0.000557514
-0.000556448
-0.00055508
-0.000547225
-0.000524838
-0.000474295
-0.00042586
-0.0004772
-0.000477179
-0.00047713
-0.000477036
-0.000476915
-0.000476726
-0.000476509
-0.000476145
-0.000475751
-0.000475264
-0.000474728
-0.00047269
-0.000469827
-0.000463129
-0.000454758
-0.000437264
-0.000419376
-0.000393476
-0.000384859
-0.000402769
-0.000402759
-0.000402726
-0.000402719
-0.00040286
-0.000403069
-0.000400368
-0.000389957
-0.000365741
-0.000341564
-0.000339187
-0.000339179
-0.000339159
-0.000339122
-0.000339072
-0.000338991
-0.000338898
-0.000338731
-0.000338551
-0.000338327
-0.000338079
-0.000337182
-0.000335891
-0.000332856
-0.00032904
-0.000320846
-0.000312351
-0.000299777
-0.000295593
-0.000279051
-0.000278987
-0.000278804
-0.000278482
-0.000277985
-0.000277335
-0.000275348
-0.000270708
-0.000259723
-0.000248445
-0.0002196
-0.000219591
-0.000219557
-0.000219506
-0.00021943
-0.000219357
-0.000219258
-0.000219213
-0.000219146
-0.000219097
-0.00021904
-0.000218346
-0.000217656
-0.000216154
-0.000214462
-0.000210916
-0.000207262
-0.000201724
-0.000199918
-0.000163269
-0.000163251
-0.000163182
-0.000163049
-0.000162787
-0.000162445
-0.000161475
-0.00015948
-0.000155222
-0.00015081
-0.000107491
-0.000107479
-0.000107458
-0.00010742
-0.000107372
-0.000107322
-0.000107262
-0.000107257
-0.000107242
-0.000107256
-0.000107269
-0.00010695
-0.000106671
-0.000106124
-0.000105544
-0.000104423
-0.00010329
-0.000101498
-0.000100981
-5.36183e-05
-5.36061e-05