# vtk DataFile Version 2.0
./vtk
ASCII

DATASET UNSTRUCTURED_GRID
POINTS 2343 double
0 0 0.0
0.985 0 0.0
1.97 0 0.0
2.955 0 0.0
3.94 0 0.0
4.925 0 0.0
5.91 0 0.0
6.955 0 0.0
8 0 0.0
9 0 0.0
10 0 0.0
11 0 0.0
12 0 0.0
13 0 0.0
14 0 0.0
15 0 0.0
16 0 0.0
17 0 0.0
18 0 0.0
19 0 0.0
20 0 0.0
21 0 0.0
22 0 0.0
23 0 0.0
24 0 0.0
25.5 0 0.0
27 0 0.0
28.5 0 0.0
30 0 0.0
31.5 0 0.0
33 0 0.0
34.5 0 0.0
36 0 0.0
39 0 0.0
42 0 0.0
45 0 0.0
48 0 0.0
54 0 0.0
60 0 0.0
66 0 0.0
72 0 0.0
78 0 0.0
84 0 0.0
90 0 0.0
96 0 0.0
102 0 0.0
108 0 0.0
114 0 0.0
120 0 0.0
0 -0.4005 0.0
1.97 -0.4005 0.0
3.94 -0.4005 0.0
5.91 -0.4005 0.0
8 -0.4005 0.0
10 -0.4005 0.0
12 -0.4005 0.0
14 -0.4005 0.0
16 -0.4005 0.0
18 -0.4005 0.0
20 -0.4005 0.0
22 -0.4005 0.0
24 -0.4005 0.0
27 -0.4005 0.0
30 -0.4005 0.0
33 -0.4005 0.0
36 -0.4005 0.0
42 -0.4005 0.0
48 -0.4005 0.0
60 -0.4005 0.0
72 -0.4005 0.0
84 -0.4005 0.0
96 -0.4005 0.0
108 -0.4005 0.0
120 -0.4005 0.0
0 -0.801 0.0
0.985 -0.801 0.0
1.97 -0.801 0.0
2.955 -0.801 0.0
3.94 -0.801 0.0
4.925 -0.801 0.0
5.91 -0.801 0.0
6.955 -0.801 0.0
8 -0.801 0.0
9 -0.801 0.0
10 -0.801 0.0
11 -0.801 0.0
12 -0.801 0.0
13 -0.801 0.0
14 -0.801 0.0
15 -0.801 0.0
16 -0.801 0.0
17 -0.801 0.0
18 -0.801 0.0
19 -0.801 0.0
20 -0.801 0.0
21 -0.801 0.0
22 -0.801 0.0
23 -0.801 0.0
24 -0.801 0.0
25.5 -0.801 0.0
27 -0.801 0.0
28.5 -0.801 0.0
30 -0.801 0.0
31.5 -0.801 0.0
33 -0.801 0.0
34.5 -0.801 0.0
36 -0.801 0.0
39 -0.801 0.0
42 -0.801 0.0
45 -0.801 0.0
48 -0.801 0.0
54 -0.801 0.0
60 -0.801 0.0
66 -0.801 0.0
72 -0.801 0.0
78 -0.801 0.0
84 -0.801 0.0
90 -0.801 0.0
96 -0.801 0.0
102 -0.801 0.0
108 -0.801 0.0
114 -0.801 0.0
120 -0.801 0.0
0 -1.2015 0.0
1.97 -1.2015 0.0
3.94 -1.2015 0.0
5.91 -1.2015 0.0
8 -1.2015 0.0
10 -1.2015 0.0
12 -1.2015 0.0
14 -1.2015 0.0
16 -1.2015 0.0
18 -1.2015 0.0
20 -1.2015 0.0
22 -1.2015 0.0
24 -1.2015 0.0
27 -1.2015 0.0
30 -1.2015 0.0
33 -1.2015 0.0
36 -1.2015 0.0
42 -1.2015 0.0
48 -1.2015 0.0
60 -1.2015 0.0
72 -1.2015 0.0
84 -1.2015 0.0
96 -1.2015 0.0
108 -1.2015 0.0
120 -1.2015 0.0
0 -1.602 0.0
0.985 -1.602 0.0
1.97 -1.602 0.0
2.955 -1.602 0.0
3.94 -1.602 0.0
4.925 -1.602 0.0
5.91 -1.602 0.0
6.955 -1.602 0.0
8 -1.602 0.0
9 -1.602 0.0
10 -1.602 0.0
11 -1.602 0.0
12 -1.602 0.0
13 -1.602 0.0
14 -1.602 0.0
15 -1.602 0.0
16 -1.602 0.0
17 -1.602 0.0
18 -1.602 0.0
19 -1.602 0.0
20 -1.602 0.0
21 -1.602 0.0
22 -1.602 0.0
23 -1.602 0.0
24 -1.602 0.0
25.5 -1.602 0.0
27 -1.602 0.0
28.5 -1.602 0.0
30 -1.602 0.0
31.5 -1.602 0.0
33 -1.602 0.0
34.5 -1.602 0.0
36 -1.602 0.0
39 -1.602 0.0
42 -1.602 0.0
45 -1.602 0.0
48 -1.602 0.0
54 -1.602 0.0
60 -1.602 0.0
66 -1.602 0.0
72 -1.602 0.0
78 -1.602 0.0
84 -1.602 0.0
90 -1.602 0.0
96 -1.602 0.0
102 -1.602 0.0
108 -1.602 0.0
114 -1.602 0.0
120 -1.602 0.0
0 -2.0025 0.0
1.97 -2.0025 0.0
3.94 -2.0025 0.0
5.91 -2.0025 0.0
8 -2.0025 0.0
10 -2.0025 0.0
12 -2.0025 0.0
14 -2.0025 0.0
16 -2.0025 0.0
18 -2.0025 0.0
20 -2.0025 0.0
22 -2.0025 0.0
24 -2.0025 0.0
27 -2.0025 0.0
30 -2.0025 0.0
33 -2.0025 0.0
36 -2.0025 0.0
42 -2.0025 0.0
48 -2.0025 0.0
60 -2.0025 0.0
72 -2.0025 0.0
84 -2.0025 0.0
96 -2.0025 0.0
108 -2.0025 0.0
120 -2.0025 0.0
0 -2.403 0.0
0.985 -2.403 0.0
1.97 -2.403 0.0
2.955 -2.403 0.0
3.94 -2.403 0.0
4.925 -2.403 0.0
5.91 -2.403 0.0
6.955 -2.403 0.0
8 -2.403 0.0
9 -2.403 0.0
10 -2.403 0.0
11 -2.403 0.0
12 -2.403 0.0
13 -2.403 0.0
14 -2.403 0.0
15 -2.403 0.0
16 -2.403 0.0
17 -2.403 0.0
18 -2.403 0.0
19 -2.403 0.0
20 -2.403 0.0
21 -2.403 0.0
22 -2.403 0.0
23 -2.403 0.0
24 -2.403 0.0
25.5 -2.403 0.0
27 -2.403 0.0
28.5 -2.403 0.0
30 -2.403 0.0
31.5 -2.403 0.0
33 -2.403 0.0
34.5 -2.403 0.0
36 -2.403 0.0
39 -2.403 0.0
42 -2.403 0.0
45 -2.403 0.0
48 -2.403 0.0
54 -2.403 0.0
60 -2.403 0.0
66 -2.403 0.0
72 -2.403 0.0
78 -2.403 0.0
84 -2.403 0.0
90 -2.403 0.0
96 -2.403 0.0
102 -2.403 0.0
108 -2.403 0.0
114 -2.403 0.0
120 -2.403 0.0
0 -2.8035 0.0
1.97 -2.8035 0.0
3.94 -2.8035 0.0
5.91 -2.8035 0.0
8 -2.8035 0.0
10 -2.8035 0.0
12 -2.8035 0.0
14 -2.8035 0.0
16 -2.8035 0.0
18 -2.8035 0.0
20 -2.8035 0.0
22 -2.8035 0.0
24 -2.8035 0.0
27 -2.8035 0.0
30 -2.8035 0.0
33 -2.8035 0.0
36 -2.8035 0.0
42 -2.8035 0.0
48 -2.8035 0.0
60 -2.8035 0.0
72 -2.8035 0.0
84 -2.8035 0.0
96 -2.8035 0.0
108 -2.8035 0.0
120 -2.8035 0.0
0 -3.204 0.0
0.985 -3.204 0.0
1.97 -3.204 0.0
2.955 -3.204 0.0
3.94 -3.204 0.0
4.925 -3.204 0.0
5.91 -3.204 0.0
6.955 -3.204 0.0
8 -3.204 0.0
9 -3.204 0.0
10 -3.204 0.0
11 -3.204 0.0
12 -3.204 0.0
13 -3.204 0.0
14 -3.204 0.0
15 -3.204 0.0
16 -3.204 0.0
17 -3.204 0.0
18 -3.204 0.0
19 -3.204 0.0
20 -3.204 0.0
21 -3.204 0.0
22 -3.204 0.0
23 -3.204 0.0
24 -3.204 0.0
25.5 -3.204 0.0
27 -3.204 0.0
28.5 -3.204 0.0
30 -3.204 0.0
31.5 -3.204 0.0
33 -3.204 0.0
34.5 -3.204 0.0
36 -3.204 0.0
39 -3.204 0.0
42 -3.204 0.0
45 -3.204 0.0
48 -3.204 0.0
54 -3.204 0.0
60 -3.204 0.0
66 -3.204 0.0
72 -3.204 0.0
78 -3.204 0.0
84 -3.204 0.0
90 -3.204 0.0
96 -3.204 0.0
102 -3.204 0.0
108 -3.204 0.0
114 -3.204 0.0
120 -3.204 0.0
0 -3.8175 0.0
1.97 -3.8175 0.0
3.94 -3.8175 0.0
5.91 -3.8175 0.0
8 -3.8175 0.0
10 -3.8175 0.0
12 -3.8175 0.0
14 -3.8175 0.0
16 -3.8175 0.0
18 -3.8175 0.0
20 -3.8175 0.0
22 -3.8175 0.0
24 -3.8175 0.0
27 -3.8175 0.0
30 -3.8175 0.0
33 -3.8175 0.0
36 -3.8175 0.0
42 -3.8175 0.0
48 -3.8175 0.0
60 -3.8175 0.0
72 -3.8175 0.0
84 -3.8175 0.0
96 -3.8175 0.0
108 -3.8175 0.0
120 -3.8175 0.0
0 -4.431 0.0
0.985 -4.431 0.0
1.97 -4.431 0.0
2.955 -4.431 0.0
3.94 -4.431 0.0
4.925 -4.431 0.0
5.91 -4.431 0.0
6.955 -4.431 0.0
8 -4.431 0.0
9 -4.431 0.0
10 -4.431 0.0
11 -4.431 0.0
12 -4.431 0.0
13 -4.431 0.0
14 -4.431 0.0
15 -4.431 0.0
16 -4.431 0.0
17 -4.431 0.0
18 -4.431 0.0
19 -4.431 0.0
20 -4.431 0.0
21 -4.431 0.0
22 -4.431 0.0
23 -4.431 0.0
24 -4.431 0.0
25.5 -4.431 0.0
27 -4.431 0.0
28.5 -4.431 0.0
30 -4.431 0.0
31.5 -4.431 0.0
33 -4.431 0.0
34.5 -4.431 0.0
36 -4.431 0.0
39 -4.431 0.0
42 -4.431 0.0
45 -4.431 0.0
48 -4.431 0.0
54 -4.431 0.0
60 -4.431 0.0
66 -4.431 0.0
72 -4.431 0.0
78 -4.431 0.0
84 -4.431 0.0
90 -4.431 0.0
96 -4.431 0.0
102 -4.431 0.0
108 -4.431 0.0
114 -4.431 0.0
120 -4.431 0.0
0 -5.0445 0.0
1.97 -5.0445 0.0
3.94 -5.0445 0.0
5.91 -5.0445 0.0
8 -5.0445 0.0
10 -5.0445 0.0
12 -5.0445 0.0
14 -5.0445 0.0
16 -5.0445 0.0
18 -5.0445 0.0
20 -5.0445 0.0
22 -5.0445 0.0
24 -5.0445 0.0
27 -5.0445 0.0
30 -5.0445 0.0
33 -5.0445 0.0
36 -5.0445 0.0
42 -5.0445 0.0
48 -5.0445 0.0
60 -5.0445 0.0
72 -5.0445 0.0
84 -5.0445 0.0
96 -5.0445 0.0
108 -5.0445 0.0
120 -5.0445 0.0
0 -5.658 0.0
0.985 -5.658 0.0
1.97 -5.658 0.0
2.955 -5.658 0.0
3.94 -5.658 0.0
4.925 -5.658 0.0
5.91 -5.658 0.0
6.955 -5.658 0.0
8 -5.658 0.0
9 -5.658 0.0
10 -5.658 0.0
11 -5.658 0.0
12 -5.658 0.0
13 -5.658 0.0
14 -5.658 0.0
15 -5.658 0.0
16 -5.658 0.0
17 -5.658 0.0
18 -5.658 0.0
19 -5.658 0.0
20 -5.658 0.0
21 -5.658 0.0
22 -5.658 0.0
23 -5.658 0.0
24 -5.658 0.0
25.5 -5.658 0.0
27 -5.658 0.0
28.5 -5.658 0.0
30 -5.658 0.0
31.5 -5.658 0.0
33 -5.658 0.0
34.5 -5.658 0.0
36 -5.658 0.0
39 -5.658 0.0
42 -5.658 0.0
45 -5.658 0.0
48 -5.658 0.0
54 -5.658 0.0
60 -5.658 0.0
66 -5.658 0.0
72 -5.658 0.0
78 -5.658 0.0
84 -5.658 0.0
90 -5.658 0.0
96 -5.658 0.0
102 -5.658 0.0
108 -5.658 0.0
114 -5.658 0.0
120 -5.658 0.0
0 -6.2715 0.0
1.97 -6.2715 0.0
3.94 -6.2715 0.0
5.91 -6.2715 0.0
8 -6.2715 0.0
10 -6.2715 0.0
12 -6.2715 0.0
14 -6.2715 0.0
16 -6.2715 0.0
18 -6.2715 0.0
20 -6.2715 0.0
22 -6.2715 0.0
24 -6.2715 0.0
27 -6.2715 0.0
30 -6.2715 0.0
33 -6.2715 0.0
36 -6.2715 0.0
42 -6.2715 0.0
48 -6.2715 0.0
60 -6.2715 0.0
72 -6.2715 0.0
84 -6.2715 0.0
96 -6.2715 0.0
108 -6.2715 0.0
120 -6.2715 0.0
0 -6.885 0.0
0.985 -6.885 0.0
1.97 -6.885 0.0
2.955 -6.885 0.0
3.94 -6.885 0.0
4.925 -6.885 0.0
5.91 -6.885 0.0
6.955 -6.885 0.0
8 -6.885 0.0
9 -6.885 0.0
10 -6.885 0.0
11 -6.885 0.0
12 -6.885 0.0
13 -6.885 0.0
14 -6.885 0.0
15 -6.885 0.0
16 -6.885 0.0
17 -6.885 0.0
18 -6.885 0.0
19 -6.885 0.0
20 -6.885 0.0
21 -6.885 0.0
22 -6.885 0.0
23 -6.885 0.0
24 -6.885 0.0
25.5 -6.885 0.0
27 -6.885 0.0
28.5 -6.885 0.0
30 -6.885 0.0
31.5 -6.885 0.0
33 -6.885 0.0
34.5 -6.885 0.0
36 -6.885 0.0
39 -6.885 0.0
42 -6.885 0.0
45 -6.885 0.0
48 -6.885 0.0
54 -6.885 0.0
60 -6.885 0.0
66 -6.885 0.0
72 -6.885 0.0
78 -6.885 0.0
84 -6.885 0.0
90 -6.885 0.0
96 -6.885 0.0
102 -6.885 0.0
108 -6.885 0.0
114 -6.885 0.0
120 -6.885 0.0
0 -7.4985 0.0
1.97 -7.4985 0.0
3.94 -7.4985 0.0
5.91 -7.4985 0.0
8 -7.4985 0.0
10 -7.4985 0.0
12 -7.4985 0.0
14 -7.4985 0.0
16 -7.4985 0.0
18 -7.4985 0.0
20 -7.4985 0.0
22 -7.4985 0.0
24 -7.4985 0.0
27 -7.4985 0.0
30 -7.4985 0.0
33 -7.4985 0.0
36 -7.4985 0.0
42 -7.4985 0.0
48 -7.4985 0.0
60 -7.4985 0.0
72 -7.4985 0.0
84 -7.4985 0.0
96 -7.4985 0.0
108 -7.4985 0.0
120 -7.4985 0.0
0 -8.112 0.0
0.985 -8.112 0.0
1.97 -8.112 0.0
2.955 -8.112 0.0
3.94 -8.112 0.0
4.925 -8.112 0.0
5.91 -8.112 0.0
6.955 -8.112 0.0
8 -8.112 0.0
9 -8.112 0.0
10 -8.112 0.0
11 -8.112 0.0
12 -8.112 0.0
13 -8.112 0.0
14 -8.112 0.0
15 -8.112 0.0
16 -8.112 0.0
17 -8.112 0.0
18 -8.112 0.0
19 -8.112 0.0
20 -8.112 0.0
21 -8.112 0.0
22 -8.112 0.0
23 -8.112 0.0
24 -8.112 0.0
25.5 -8.112 0.0
27 -8.112 0.0
28.5 -8.112 0.0
30 -8.112 0.0
31.5 -8.112 0.0
33 -8.112 0.0
34.5 -8.112 0.0
36 -8.112 0.0
39 -8.112 0.0
42 -8.112 0.0
45 -8.112 0.0
48 -8.112 0.0
54 -8.112 0.0
60 -8.112 0.0
66 -8.112 0.0
72 -8.112 0.0
78 -8.112 0.0
84 -8.112 0.0
90 -8.112 0.0
96 -8.112 0.0
102 -8.112 0.0
108 -8.112 0.0
114 -8.112 0.0
120 -8.112 0.0
0 -8.7255 0.0
1.97 -8.7255 0.0
3.94 -8.7255 0.0
5.91 -8.7255 0.0
8 -8.7255 0.0
10 -8.7255 0.0
12 -8.7255 0.0
14 -8.7255 0.0
16 -8.7255 0.0
18 -8.7255 0.0
20 -8.7255 0.0
22 -8.7255 0.0
24 -8.7255 0.0
27 -8.7255 0.0
30 -8.7255 0.0
33 -8.7255 0.0
36 -8.7255 0.0
42 -8.7255 0.0
48 -8.7255 0.0
60 -8.7255 0.0
72 -8.7255 0.0
84 -8.7255 0.0
96 -8.7255 0.0
108 -8.7255 0.0
120 -8.7255 0.0
0 -9.339 0.0
0.985 -9.339 0.0
1.97 -9.339 0.0
2.955 -9.339 0.0
3.94 -9.339 0.0
4.925 -9.339 0.0
5.91 -9.339 0.0
6.955 -9.339 0.0
8 -9.339 0.0
9 -9.339 0.0
10 -9.339 0.0
11 -9.339 0.0
12 -9.339 0.0
13 -9.339 0.0
14 -9.339 0.0
15 -9.339 0.0
16 -9.339 0.0
17 -9.339 0.0
18 -9.339 0.0
19 -9.339 0.0
20 -9.339 0.0
[...]
POINT_DATA 2343
SCALARS Displacement_R double 1
LOOKUP_TABLE default
0
4.0175e-06
4.78503e-06
-6.35016e-06
-4.96515e-05
-0.000162217
-0.000252325
-0.000210121
-0.000162407
-0.000188354
-0.000230804
-0.000271415
-0.000306948
-0.000337316
-0.00036275
-0.000383681
-0.000401115
-0.000415921
-0.000428612
-0.000439559
-0.000449019
-0.000457211
-0.000464285
-0.000470363
-0.00047554
-0.000481777
-0.000486389
-0.000489534
-0.000491377
-0.000492028
-0.000491613
-0.000490219
-0.000487954
-0.000481022
-0.000471471
-0.000459637
-0.000446039
-0.000414405
-0.000378922
-0.000340804
-0.000301327
-0.000261263
-0.000221195
-0.000181658
-0.000142854
-0.000105186
-6.86618e-05
-3.36191e-05
0
0
1.78286e-05
8.30122e-06
3.97848e-05
-0.000122729
-0.000211681
-0.000290719
-0.000344972
-0.000382597
-0.000409606
-0.000429658
-0.000444671
-0.000455757
-0.000466507
-0.000471554
-0.000471983
-0.000468622
-0.000453021
-0.000428729
-0.000364394
-0.000289863
-0.000212824
-0.000137468
-6.60815e-05
0
0
1.53103e-05
2.87541e-05
4.98189e-05
8.31887e-05
0.000161527
0.000184178
6.35247e-05
-6.50648e-05
-0.000140086
-0.000197274
-0.000240443
-0.000276122
-0.000305355
-0.000329083
-0.000348718
-0.000365296
-0.000379436
-0.000391546
-0.000402002
-0.00041106
-0.000418916
-0.000425706
-0.000431552
-0.000436541
-0.000442595
-0.000447102
-0.000450238
-0.000452139
-0.000452927
-0.000452706
-0.000451573
-0.000449596
-0.000443458
-0.000434803
-0.000424073
-0.000411597
-0.000382638
-0.000349971
-0.000314876
-0.000278464
-0.00024148
-0.000204491
-0.000167943
-0.000132103
-9.7255e-05
-6.35097e-05
-3.10827e-05
0
0
4.01193e-05
0.000138012
0.000250835
-2.49774e-05
-0.000183653
-0.000264342
-0.000314741
-0.00034925
-0.0003744
-0.00039321
-0.00040737
-0.000417877
-0.000428161
-0.00043312
-0.000433772
-0.000430877
-0.000416825
-0.000394658
-0.000335664
-0.000267128
-0.000196189
-0.00012675
-6.09399e-05
0
0
1.84262e-05
4.79061e-05
9.1193e-05
0.000161271
0.000247867
0.00025923
0.000145182
-4.70497e-06
-0.000107274
-0.000173956
-0.000221164
-0.00025487
-0.000280973
-0.00030198
-0.000319486
-0.000334322
-0.000347086
-0.000358122
-0.000367716
-0.000376063
-0.00038333
-0.000389633
-0.000395076
-0.000399736
-0.000405409
-0.000409659
-0.00041264
-0.000414479
-0.000415289
-0.000415165
-0.00041419
-0.000412441
-0.000406916
-0.000399062
-0.000389287
-0.000377883
-0.000351398
-0.000321455
-0.00028927
-0.000255851
-0.000221893
-0.000187923
-0.000154343
-0.000121417
-8.93871e-05
-5.83781e-05
-2.85686e-05
0
0
4.14366e-05
0.000153043
0.000229174
-8.30579e-06
-0.000173088
-0.000247949
-0.000290755
-0.000320477
-0.000342681
-0.000359597
-0.000372474
-0.0003821
-0.000391581
-0.000396201
-0.000396869
-0.000394279
-0.000381509
-0.000361279
-0.000307349
-0.000244633
-0.000179688
-0.000116097
-5.58196e-05
0
0
7.5854e-06
2.51026e-05
5.83365e-05
0.000108962
0.000159741
0.000157167
7.47759e-05
-3.70908e-05
-0.000121657
-0.000177943
-0.000216407
-0.00024332
-0.000264004
-0.00028084
-0.000295207
-0.000307622
-0.000318482
-0.000328014
-0.000336402
-0.000343768
-0.000350227
-0.00035586
-0.000360745
-0.000364941
-0.000370062
-0.000373906
-0.000376605
-0.000378268
-0.000378997
-0.000378873
-0.000377979
-0.000376377
-0.000371324
-0.000364153
-0.000355227
-0.000344826
-0.000320646
-0.000293334
-0.000263961
-0.000233469
-0.000202486
-0.000171484
-0.000140849
-0.000110795
-8.15751e-05
-5.32684e-05
-2.6074e-05
0
0
-4.72654e-06
3.1915e-05
4.5675e-05
-9.08801e-05
-0.000191341
-0.00024094
-0.000272225
-0.000295679
-0.000314082
-0.000328546
-0.000339766
-0.00034824
-0.000356619
-0.000360668
-0.000361165
-0.00035873
-0.000346995
-0.000328534
-0.000279416
-0.000222359
-0.000163308
-0.000105503
-5.0718e-05
0
0
-2.20055e-05
-4.29683e-05
-6.24181e-05
-8.06341e-05
-9.82092e-05
-0.000118617
-0.000142963
-0.000168327
-0.000190294
-0.000209226
-0.00022581
-0.000240191
-0.000253088
-0.000264631
-0.000275109
-0.000284568
-0.000293122
-0.000300819
-0.000307727
-0.000313888
-0.000319352
-0.000324161
-0.000328354
-0.00033197
-0.000336385
-0.000339697
-0.000341994
-0.000343382
-0.000343931
-0.000343729
-0.000342832
-0.000341319
-0.000336592
-0.000330017
-0.000321824
-0.000312381
-0.000290335
-0.000265581
-0.000238923
-0.000211299
-0.000183245
-0.00015516
-0.000127453
-0.000100227
-7.38169e-05
-4.81742e-05
-2.35989e-05
0
0
-3.13678e-05
-6.012e-05
-9.31228e-05
-0.000139119
-0.000179476
-0.000210692
-0.000235089
-0.000254706
-0.000270579
-0.000283306
-0.00029332
-0.000300971
-0.000308654
-0.000312512
-0.000313222
-0.000311335
-0.000301473
-0.000285657
-0.000243195
-0.000193658
-0.000142288
-9.19482e-05
-4.42084e-05
0
0
-1.12222e-05
-2.22581e-05
-3.2981e-05
-4.43337e-05
-5.7287e-05
-7.28873e-05
-9.28329e-05
-0.00011423
-0.000134107
-0.000152419
-0.000168654
-0.000182988
-0.000195669
-0.000206935
-0.000217011
-0.000226036
-0.000234134
-0.00024139
-0.00024788
-0.000253665
-0.000258798
-0.000263326
-0.000267294
-0.000270736
-0.000274999
-0.000278268
-0.000280645
-0.00028221
-0.000283043
-0.000283208
-0.00028277
-0.000281778
-0.000278346
-0.000273255
-0.000266792
-0.000259181
-0.000241304
-0.000220959
-0.000198986
-0.000176106
-0.000152813
-0.000129468
-0.000106373
-8.36977e-05
-6.16352e-05
-4.02547e-05
-1.97032e-05
0
0
-1.51347e-05
-3.19374e-05
-5.63709e-05
-9.27022e-05
-0.000127889
-0.000157062
-0.000180139
-0.000198491
-0.000213179
-0.000224892
-0.000234111
-0.000241204
-0.000248488
-0.000252431
-0.000253647
-0.000252621
-0.000245347
-0.000232954
-0.000198873
-0.000158641
-0.000116693
-7.54666e-05
-3.63047e-05
0
0
-4.66107e-06
-9.62668e-06
-1.51644e-05
-2.2105e-05
-3.10544e-05
-4.25376e-05
-5.74124e-05
-7.39477e-05
-9.00746e-05
-0.000105584
-0.000119862
-0.000132765
-0.000144306
-0.000154597
-0.000163785
-0.000171985
-0.000179318
-0.000185866
-0.00019171
-0.000196911
-0.000201526
-0.000205602
-0.000209183
-0.000212306
-0.000216205
-0.00021925
-0.00022153
-0.00022312
-0.000224088
-0.000224492
-0.000224386
-0.000223818
-0.00022146
-0.000217708
-0.000212802
-0.000206932
-0.000192976
-0.000176911
-0.000159478
-0.000141249
-0.000122641
-0.000103962
-8.54471e-05
-6.72593e-05
-4.9536e-05
-3.2365e-05
-1.58365e-05
0
0
-5.24038e-06
-1.40049e-05
-3.06512e-05
-5.72966e-05
-8.51948e-05
-0.00010998
-0.000130237
-0.000146447
-0.000159376
-0.000169649
-0.000177731
-0.000183979
-0.000190502
-0.00019423
-0.000195702
-0.000195333
-0.000190314
-0.000181104
-0.000155068
-0.000123928
-9.12702e-05
-5.90721e-05
-2.84323e-05
0
0
-6.09308e-07
-1.71443e-06
-3.71039e-06
-7.21385e-06
-1.26629e-05
-2.02363e-05
-3.05087e-05
-4.23564e-05
-5.43981e-05
-6.64277e-05
-7.7881e-05
-8.85204e-05
-9.81997e-05
-0.000106933
-0.000114766
-0.000121773
-0.000128035
-0.000133621
-0.0001386
-0.000143026
-0.000146954
-0.000150425
-0.000153481
-0.000156155
-0.000159519
-0.000162182
-0.000164225
-0.00016571
-0.000166697
-0.000167233
-0.000167364
-0.000167126
-0.000165682
-0.000163132
-0.000159666
-0.000155439
-0.000145225
-0.000133322
-0.000120321
-0.000106665
-9.26813e-05
-7.86132e-05
-6.46428e-05
-5.09039e-05
-3.74997e-05
-2.45078e-05
-1.1991e-05
0
0
1.25404e-06
-1.31034e-06
-1.09029e-05
-2.87038e-05
-4.89743e-05
-6.82112e-05
-8.45733e-05
-9.78774e-05
-0.000108521
-0.000116969
-0.000123615
-0.000128773
-0.000134238
-0.000137513
-0.000139043
-0.000139162
-0.000136137
-0.00012992
-0.000111666
-8.94565e-05
-6.59874e-05
-4.27524e-05
-2.05899e-05
0
0
2.16354e-06
3.82081e-06
4.57774e-06
3.97071e-06
1.69016e-06
-2.35044e-06
-8.48777e-06
-1.60662e-05
-2.41733e-05
-3.26083e-05
-4.09289e-05
-4.88779e-05
-5.62619e-05
-6.30255e-05
-6.91461e-05
-7.46518e-05
-7.95825e-05
-8.39847e-05
-8.79078e-05
-9.1395e-05
-9.44897e-05
-9.72272e-05
-9.96422e-05
-0.000101763
-0.00010445
-0.000106609
-0.000108303
-0.000109586
-0.000110501
-0.000111088
-0.000111379
-0.000111402
-0.00011075
-0.000109298
-0.000107184
-0.000104521
-9.79192e-05
-9.00826e-05
-8.14353e-05
-7.22917e-05
-6.2884e-05
-5.33875e-05
-4.3932e-05
-3.46151e-05
-2.55111e-05
-1.66782e-05
-8.16089e-06
0
0
6.15185e-06
8.85662e-06
5.65826e-06
-4.16417e-06
-1.70762e-05
-3.03389e-05
-4.21619e-05
-5.19966e-05
-5.99253e-05
-6.62266e-05
-7.119e-05
-7.50618e-05
-7.92394e-05
-8.18807e-05
-8.3324e-05
-8.38105e-05
-8.25877e-05
-7.92229e-05
-6.85613e-05
-5.51643e-05
-4.08098e-05
-2.649e-05
-1.27716e-05
0
0
4.39208e-06
8.33855e-06
1.14943e-05
1.35041e-05
1.41299e-05
1.33122e-05
1.09012e-05
7.19824e-06
2.75976e-06
-2.19344e-06
-7.33492e-06
-1.2434e-05
-1.73013e-05
-2.18495e-05
-2.60178e-05
-2.98e-05
-3.32018e-05
-3.62469e-05
-3.8963e-05
-4.13792e-05
-4.35255e-05
-4.54281e-05
-4.71127e-05
-4.86004e-05
-5.05067e-05
-5.20701e-05
-5.3338e-05
-5.43468e-05
-5.51286e-05
-5.57084e-05
-5.61085e-05
-5.63469e-05
-5.64017e-05
-5.59767e-05
-5.51541e-05
-5.40013e-05
-5.09228e-05
-4.70863e-05
-4.27392e-05
-3.80655e-05
-3.32008e-05
-2.8249e-05
-2.32869e-05
-1.83741e-05
-1.35559e-05
-8.86903e-06
-4.34149e-06
0
0
1.04681e-05
1.80409e-05
2.07649e-05
1.82166e-05
1.22424e-05
5.00696e-06
-1.95461e-06
-7.95441e-06
-1.28576e-05
-1.67713e-05
-1.98683e-05
-2.23132e-05
-2.50447e-05
-2.69347e-05
-2.81979e-05
-2.89754e-05
-2.94368e-05
-2.88359e-05
-2.56463e-05
-2.0988e-05
-1.57011e-05
-1.02655e-05
-4.96954e-06
0
0
6.4827e-06
1.25981e-05
1.80506e-05
2.25699e-05
2.59535e-05
2.81501e-05
2.91749e-05
2.9043e-05
2.80259e-05
2.63871e-05
2.43604e-05
2.21306e-05
1.98642e-05
1.76527e-05
1.55735e-05
1.36534e-05
1.19105e-05
1.03414e-05
8.93696e-06
7.68378e-06
6.5651e-06
5.56654e-06
4.67202e-06
3.86935e-06
2.80991e-06
1.89671e-06
1.10208e-06
4.06511e-07
-2.06401e-07
-7.48552e-07
-1.2297e-06
-1.65718e-06
-2.37486e-06
-2.93871e-06
-3.37462e-06
-3.70305e-06
-4.09959e-06
-4.22679e-06
-4.1505e-06
-3.92356e-06
-3.58331e-06
-3.16102e-06
-2.68016e-06
-2.16126e-06
-1.62034e-06
-1.07203e-06
-5.28296e-07
0
0
1.61885e-05
3.01429e-05
4.03294e-05
4.66568e-05
4.92403e-05
4.97595e-05
4.93401e-05
4.86564e-05
4.79991e-05
4.74391e-05
4.69542e-05
4.6498e-05
4.57804e-05
4.49503e-05
4.39749e-05
4.2854e-05
4.02379e-05
3.72497e-05
3.06767e-05
2.38839e-05
1.7274e-05
1.10453e-05
5.27936e-06
0
0
1.01715e-05
2.00757e-05
2.94904e-05
3.82212e-05
4.60954e-05
5.30619e-05
5.93895e-05
6.47061e-05
6.89059e-05
7.237e-05
7.52167e-05
7.75642e-05
7.95247e-05
8.1177e-05
8.25957e-05
8.3824e-05
8.49003e-05
8.58453e-05
8.6675e-05
8.73988e-05
8.80225e-05
8.85506e-05
8.89858e-05
8.93308e-05
8.96848e-05
8.98503e-05
8.98379e-05
8.96574e-05
8.93212e-05
8.88395e-05
8.82244e-05
8.74859e-05
8.56835e-05
8.35037e-05
8.10136e-05
7.82679e-05
7.22053e-05
6.56163e-05
5.87316e-05
5.17114e-05
4.46785e-05
3.77195e-05
3.08981e-05
2.42571e-05
1.78282e-05
1.16329e-05
5.68515e-06
0
0
2.44021e-05
4.70812e-05
6.67521e-05
8.37246e-05
9.63847e-05
0.000106158
0.000113731
0.000119662
0.000124323
0.000127952
0.000130699
0.000132672
0.000134363
0.000134748
0.000134034
0.000132405
0.000126985
0.000119452
0.000100653
7.95947e-05
5.81966e-05
3.74856e-05
1.79932e-05
0
0
1.47737e-05
2.93272e-05
4.34681e-05
5.70292e-05
6.98434e-05
8.18392e-05
9.35581e-05
0.000104258
0.000113515
0.000121885
0.000129401
0.000136147
0.000142181
0.000147578
0.000152394
0.000156688
0.000160506
0.00016389
0.000166878
0.000169498
0.000171781
0.000173749
0.000175425
0.000176828
0.000178462
0.000179575
0.000180221
0.000180438
0.00018027
0.000179747
0.000178904
0.000177769
0.000174729
0.000170804
0.000166149
0.000160889
0.000149005
0.000135838
0.000121903
0.000107565
9.31057e-05
7.87233e-05
6.45669e-05
5.07402e-05
3.73208e-05
2.43646e-05
1.19125e-05
0
0
3.50144e-05
6.8386e-05
9.87781e-05
0.000126874
0.000149502
0.000168169
0.000183313
0.000195439
0.000205017
0.000212447
0.000218057
0.000222113
0.00022575
0.000226952
0.000226167
0.000223747
0.000215085
0.000202687
0.000171239
0.000135661
9.93214e-05
6.40324e-05
3.07506e-05
0
0
2.09707e-05
4.17007e-05
6.19697e-05
8.15913e-05
0.000100356
0.000118169
0.000135853
0.000152272
0.000166714
0.000179961
0.000192004
0.000202921
0.00021275
0.000221573
0.000229457
0.000236474
0.000242696
0.000248185
0.000253007
0.000257212
0.000260856
0.000263979
0.000266629
0.000268835
0.000271399
0.000273138
0.000274153
0.000274503
0.000274263
0.00027348
0.000272212
0.000270493
0.000265897
0.000259949
0.000252905
0.000244926
0.000226886
0.000206899
0.000185716
0.000163911
0.000141908
0.000120008
9.84453e-05
7.73717e-05
5.69177e-05
3.71566e-05
1.8174e-05
0
0
4.9648e-05
9.71421e-05
0.000140676
0.000181222
0.000214057
0.000241161
0.000263042
0.000280386
0.000293901
0.000304222
0.000311884
0.000317316
0.000322011
0.000323316
0.000321877
0.000318187
0.000305537
0.000287738
0.000242904
0.000192355
0.000140797
9.07575e-05
4.35739e-05
0
0
2.9818e-05
5.92708e-05
8.80142e-05
0.000115783
0.000142237
0.000167263
0.000191956
0.000214762
0.000234655
0.000252781
0.0002691
0.000283771
0.000296839
0.000308465
0.000318735
0.000327791
0.000335732
0.00034267
0.000348697
0.000353899
0.000358354
0.000362125
0.000365277
0.000367856
0.000370756
0.000372609
0.000373524
0.000373598
0.000372911
0.000371537
0.000369536
0.00036697
0.000360301
0.000351949
0.00034213
0.000331175
0.000306412
0.000279279
0.000250516
0.000221019
0.000191297
0.000161713
0.000132661
0.000104211
7.6691e-05
5.00195e-05
2.44972e-05
0
0
5.71949e-05
0.000112034
0.000162539
0.000209911
0.000248626
0.000280922
0.000307307
0.000328504
0.000345275
0.000358319
0.000368229
0.000375487
0.000382228
0.00038486
0.000384127
0.000380604
0.000366953
0.000346755
0.000294292
0.000233971
0.000171747
0.000110924
5.33191e-05
0
0
2.78028e-05
5.53278e-05
8.23587e-05
0.000108637
0.000133975
0.000158193
0.000182516
0.000205316
0.000225647
0.000244497
0.000261876
0.000277814
0.000292368
0.000305596
0.000317581
0.000328392
0.000338118
0.000346827
0.000354602
0.000361504
0.000367606
0.000372958
0.000377622
0.000381641
0.000386567
0.000390273
0.000392887
0.000394499
0.000395205
0.000395077
0.000394192
0.000392608
0.000387588
0.000380398
0.000371407
0.00036088
0.000336253
0.000308125
0.000277762
0.000246021
0.000213653
0.000181143
0.000148909
0.000117237
8.635e-05
5.64288e-05
2.76075e-05
0
0
5.36636e-05
0.000105575
0.000154207
0.000200985
0.000240439
0.000274529
0.000303443
0.000327589
0.000347472
0.000363606
0.000376467
0.000386473
0.000396891
0.00040265
0.000404517
0.000403107
0.00039239
0.000373659
0.000320853
0.000257206
0.000189909
0.00012314
5.9333e-05
0
0
2.61749e-05
5.21438e-05
7.77298e-05
0.000102754
0.000127046
0.000150483
0.00017426
0.000196841
0.000217235
0.000236422
0.000254365
0.000271084
0.000286586
0.000300912
0.000314098
0.000326195
0.000337256
0.000347334
0.000356487
0.000364762
0.000372218
0.000378898
0.000384852
0.00039012
0.000396832
0.000402213
0.000406386
0.00040944
0.000411474
0.000412562
0.000412782
0.000412198
0.000408874
0.000403009
0.00039499
0.000385137
0.000361031
0.0003325
0.000300996
0.000267557
0.000233048
0.00019808
0.000163166
0.000128666
9.48897e-05
6.20599e-05
3.03737e-05
0
0
5.01012e-05
9.89334e-05
0.000145357
0.000190985
0.000230525
0.000265731
0.000296571
0.000323201
0.000345894
0.000364976
0.000380782
0.000393639
0.000408032
0.000417323
0.000422248
0.000423424
0.000416551
0.000400088
0.000348058
0.000281587
0.000209258
0.000136273
6.58224e-05
0
0
2.41954e-05
4.82484e-05
7.20378e-05
9.54335e-05
0.000118315
0.000140586
0.00016343
0.000185395
0.000205506
0.000224697
0.000242918
0.000260164
0.000276416
0.000291686
0.000305979
0.000319319
0.000331728
0.000343234
0.00035387
0.000363667
0.000372661
0.000380883
0.00038837
0.000395151
0.000404078
0.000411588
0.000417792
0.000422768
0.000426609
0.000429383
0.000431172
0.000432034
0.000431253
0.000427473
0.000421114
0.000412509
0.000389829
0.000361455
0.000329071
0.000293921
0.000257043
0.000219211
0.000181069
0.000143098
0.000105708
6.92153e-05
3.38965e-05
0
0
4.65782e-05
9.22507e-05
0.000136182
0.000180114
0.000219019
0.000254512
0.000286432
0.000314765
0.000339605
0.000361114
0.000379495
0.000394967
0.000413198
0.000426084
0.000434267
0.000438323
0.000436034
0.00042264
0.00037286
0.000304662
0.000228
0.000149176
7.22485e-05
0
0
2.2563e-05
4.50216e-05
6.72886e-05
8.92651e-05
0.000110863
0.000132005
0.000153847
0.000175016
0.000194576
0.000213413
0.000231481
0.00024876
0.000265224
0.000280866
0.000295678
0.000309665
0.000322831
0.00033519
0.000346756
0.000357545
0.000367579
0.000376878
0.000385465
0.000393362
0.000403967
0.000413149
0.00042099
0.00042756
0.000432935
0.000437181
0.000440366
0.00044255
0.000444169
0.000442463
0.000437845
0.000430663
0.000409924
0.000382404
0.00034993
0.000313912
0.000275529
0.000235694
0.00019517
0.00015455
0.000114341
7.49466e-05
3.67262e-05
0
0
4.35777e-05
8.64779e-05
0.000128064
0.000170131
0.000207933
0.000242994
0.000275105
0.000304165
0.000330163
0.000353155
0.000373244
0.000390564
0.000411682
0.000427439
0.000438364
0.000444958
0.000446981
0.00043679
0.000390243
0.000321768
0.000242354
0.000159254
7.73207e-05
0
0
2.11437e-05
4.22079e-05
6.31255e-05
8.38212e-05
0.000104226
0.000124278
0.000145094
0.000165382
0.000184243
0.000202525
0.000220183
0.000237195
0.000253529
0.000269174
0.00028411
0.000298336
0.000311843
0.000324636
0.000336716
0.000348092
0.000358773
0.000368771
0.000378098
0.00038677
0.000398583
0.00040901
0.000418113
0.000425945
0.00043257
0.000438041
0.00044242
0.000445756
0.000449539
0.000449782
0.000446883
0.000441175
0.000422678
0.000396491
0.000364532
0.00032832
0.000289151
0.000248044
0.000205874
0.000163328
0.000121005
7.93932e-05
3.89279e-05
0
0
4.04969e-05
8.04879e-05
0.000119489
0.000159301
0.000195493
0.000229512
0.000261138
0.000290225
0.000316697
0.000340535
0.000361766
0.00038045
0.000403889
0.000422142
0.000435598
0.000444659
0.000451166
0.000444633
0.000402594
0.000335192
0.000254224
0.000167837
8.17077e-05
0
0
1.94633e-05
3.88686e-05
5.81671e-05
7.7302e-05
9.62225e-05
0.000114881
0.000134334
0.00015339
0.000171204
0.000188573
0.000205459
0.000221837
0.000237677
0.000252964
0.000267674
0.000281798
0.000295322
0.000308242
0.000320551
0.00033225
0.000343338
0.000353818
0.000363695
0.000372976
0.000385795
0.00039732
0.000407586
0.000416631
0.000424499
0.000431229
0.000436867
0.000441455
0.000447671
0.000450215
0.000449436
0.00044565
0.000430313
0.000406372
0.000375769
0.000340105
0.000300777
0.00025892
0.000215517
0.000171371
0.000127186
8.35519e-05
4.09969e-05
0
0
3.73316e-05
7.42834e-05
0.000110488
0.000147704
0.000181844
0.000214276
0.000244788
0.000273223
0.00029947
0.000323465
0.000345183
0.000364628
0.000389609
0.00040974
0.000425272
0.000436498
0.000447272
0.000444574
0.000408109
0.000343258
0.00026226
0.000174005
8.49553e-05
0
0
1.79489e-05
3.58535e-05
5.36753e-05
7.13724e-05
8.8904e-05
0.000106234
0.000124354
0.000142165
0.000158877
0.000175239
0.000191215
0.000206786
0.00022192
0.000236603
0.000250811
0.000264533
0.000277751
0.000290459
0.000302643
0.000314303
0.000325429
0.000336023
0.00034608
0.000355605
0.000368895
0.000381003
0.000391946
0.000401746
0.000410432
0.000418029
0.00042457
0.000430086
0.000438207
0.000442648
0.000443712
0.000441664
0.000429459
0.000408017
0.000379274
0.000344816
0.00030612
0.000264366
0.000220639
0.000175817
0.000130699
8.59594e-05
4.2206e-05
0
0
3.31093e-05
6.59536e-05
9.82721e-05
0.000131712
0.000162651
0.000192342
0.000220604
0.000247288
0.000272277
0.00029548
0.000316836
0.00033631
0.000361961
0.000383373
0.000400646
0.000413936
0.000429357
0.000431441
0.000403244
0.000343829
0.000265334
0.00017725
8.68835e-05
0
0
1.52679e-05
3.05079e-05
4.56943e-05
6.08012e-05
7.58005e-05
9.06704e-05
0.000106271
0.000121672
0.000136188
0.000150473
0.000164496
0.000178246
0.000191694
0.000204833
0.000217635
0.000230096
0.000242192
0.00025392
0.000265261
0.000276212
0.000286759
0.000296901
0.000306627
0.000315936
0.000329104
0.00034132
0.000352574
0.000362873
0.00037222
0.000380625
0.000388102
0.000394664
0.000405127
0.000412158
0.000415958
0.000416703
0.00040999
0.000393577
0.000369222
0.000338334
0.000302433
0.000262685
0.000220296
0.000176218
0.000131388
8.65924e-05
4.25688e-05
0
0
2.70302e-05
5.38968e-05
8.04376e-05
0.000108065
0.000133832
0.000158798
0.000182831
0.000205815
0.000227646
0.000248239
0.000267521
0.000285434
0.00030965
0.000330603
0.000348263
0.000362648
0.000381867
0.00038912