# vtk DataFile Version 2.0
./vtk
ASCII

DATASET UNSTRUCTURED_GRID
POINTS 889 double
0 0 0.0
0.5 0 0.0
1 0 0.0
1.5 0 0.0
2 0 0.0
2.5 0 0.0
3 0 0.0
3.5 0 0.0
4 0 0.0
4.5 0 0.0
5 0 0.0
6.9457 0 0.0
8.8914 0 0.0
12.3514 0 0.0
15.8114 0 0.0
21.9642 0 0.0
28.1171 0 0.0
39.0585 0 0.0
50 0 0.0
0 -0.5 0.0
1 -0.5 0.0
2 -0.5 0.0
3 -0.5 0.0
4 -0.5 0.0
5 -0.5 0.0
8.8914 -0.5 0.0
15.8114 -0.5 0.0
28.1171 -0.5 0.0
50 -0.5 0.0
0 -1 0.0
0.5 -1 0.0
1 -1 0.0
1.5 -1 0.0
2 -1 0.0
2.5 -1 0.0
3 -1 0.0
3.5 -1 0.0
4 -1 0.0
4.5 -1 0.0
5 -1 0.0
6.9457 -1 0.0
8.8914 -1 0.0
12.3514 -1 0.0
15.8114 -1 0.0
21.9642 -1 0.0
28.1171 -1 0.0
39.0585 -1 0.0
50 -1 0.0
0 -1.5 0.0
1 -1.5 0.0
2 -1.5 0.0
3 -1.5 0.0
4 -1.5 0.0
5 -1.5 0.0
8.8914 -1.5 0.0
15.8114 -1.5 0.0
28.1171 -1.5 0.0
50 -1.5 0.0
0 -2 0.0
0.5 -2 0.0
1 -2 0.0
1.5 -2 0.0
2 -2 0.0
2.5 -2 0.0
3 -2 0.0
3.5 -2 0.0
4 -2 0.0
4.5 -2 0.0
5 -2 0.0
6.9457 -2 0.0
8.8914 -2 0.0
12.3514 -2 0.0
15.8114 -2 0.0
21.9642 -2 0.0
28.1171 -2 0.0
39.0585 -2 0.0
50 -2 0.0
0 -2.5 0.0
1 -2.5 0.0
2 -2.5 0.0
3 -2.5 0.0
4 -2.5 0.0
5 -2.5 0.0
8.8914 -2.5 0.0
15.8114 -2.5 0.0
28.1171 -2.5 0.0
50 -2.5 0.0
0 -3 0.0
0.5 -3 0.0
1 -3 0.0
1.5 -3 0.0
2 -3 0.0
2.5 -3 0.0
3 -3 0.0
3.5 -3 0.0
4 -3 0.0
4.5 -3 0.0
5 -3 0.0
6.9457 -3 0.0
8.8914 -3 0.0
12.3514 -3 0.0
15.8114 -3 0.0
21.9642 -3 0.0
28.1171 -3 0.0
39.0585 -3 0.0
50 -3 0.0
0 -3.5 0.0
1 -3.5 0.0
2 -3.5 0.0
3 -3.5 0.0
4 -3.5 0.0
5 -3.5 0.0
8.8914 -3.5 0.0
15.8114 -3.5 0.0
28.1171 -3.5 0.0
50 -3.5 0.0
0 -4 0.0
0.5 -4 0.0
1 -4 0.0
1.5 -4 0.0
2 -4 0.0
2.5 -4 0.0
3 -4 0.0
3.5 -4 0.0
4 -4 0.0
4.5 -4 0.0
5 -4 0.0
6.9457 -4 0.0
8.8914 -4 0.0
12.3514 -4 0.0
15.8114 -4 0.0
21.9642 -4 0.0
28.1171 -4 0.0
39.0585 -4 0.0
50 -4 0.0
0 -4.5 0.0
1 -4.5 0.0
2 -4.5 0.0
3 -4.5 0.0
4 -4.5 0.0
5 -4.5 0.0
8.8914 -4.5 0.0
15.8114 -4.5 0.0
28.1171 -4.5 0.0
50 -4.5 0.0
0 -5 0.0
0.5 -5 0.0
1 -5 0.0
1.5 -5 0.0
2 -5 0.0
2.5 -5 0.0
3 -5 0.0
3.5 -5 0.0
4 -5 0.0
4.5 -5 0.0
5 -5 0.0
6.9457 -5 0.0
8.8914 -5 0.0
12.3514 -5 0.0
15.8114 -5 0.0
21.9642 -5 0.0
28.1171 -5 0.0
39.0585 -5 0.0
50 -5 0.0
0 -5.5 0.0
1 -5.5 0.0
2 -5.5 0.0
3 -5.5 0.0
4 -5.5 0.0
5 -5.5 0.0
8.8914 -5.5 0.0
15.8114 -5.5 0.0
28.1171 -5.5 0.0
50 -5.5 0.0
0 -6 0.0
0.5 -6 0.0
1 -6 0.0
1.5 -6 0.0
2 -6 0.0
2.5 -6 0.0
3 -6 0.0
3.5 -6 0.0
4 -6 0.0
4.5 -6 0.0
5 -6 0.0
6.9457 -6 0.0
8.8914 -6 0.0
12.3514 -6 0.0
15.8114 -6 0.0
21.9642 -6 0.0
28.1171 -6 0.0
39.0585 -6 0.0
50 -6 0.0
0 -6.5 0.0
1 -6.5 0.0
2 -6.5 0.0
3 -6.5 0.0
4 -6.5 0.0
5 -6.5 0.0
8.8914 -6.5 0.0
15.8114 -6.5 0.0
28.1171 -6.5 0.0
50 -6.5 0.0
0 -7 0.0
0.5 -7 0.0
1 -7 0.0
1.5 -7 0.0
2 -7 0.0
2.5 -7 0.0
3 -7 0.0
3.5 -7 0.0
4 -7 0.0
4.5 -7 0.0
5 -7 0.0
6.9457 -7 0.0
8.8914 -7 0.0
12.3514 -7 0.0
15.8114 -7 0.0
21.9642 -7 0.0
28.1171 -7 0.0
39.0585 -7 0.0
50 -7 0.0
0 -7.5 0.0
1 -7.5 0.0
2 -7.5 0.0
3 -7.5 0.0
4 -7.5 0.0
5 -7.5 0.0
8.8914 -7.5 0.0
15.8114 -7.5 0.0
28.1171 -7.5 0.0
50 -7.5 0.0
0 -8 0.0
0.5 -8 0.0
1 -8 0.0
1.5 -8 0.0
2 -8 0.0
2.5 -8 0.0
3 -8 0.0
3.5 -8 0.0
4 -8 0.0
4.5 -8 0.0
5 -8 0.0
6.9457 -8 0.0
8.8914 -8 0.0
12.3514 -8 0.0
15.8114 -8 0.0
21.9642 -8 0.0
28.1171 -8 0.0
39.0585 -8 0.0
50 -8 0.0
0 -8.5 0.0
1 -8.5 0.0
2 -8.5 0.0
3 -8.5 0.0
4 -8.5 0.0
5 -8.5 0.0
8.8914 -8.5 0.0
15.8114 -8.5 0.0
28.1171 -8.5 0.0
50 -8.5 0.0
0 -9 0.0
0.5 -9 0.0
1 -9 0.0
1.5 -9 0.0
2 -9 0.0
2.5 -9 0.0
3 -9 0.0
3.5 -9 0.0
4 -9 0.0
4.5 -9 0.0
5 -9 0.0
6.9457 -9 0.0
8.8914 -9 0.0
12.3514 -9 0.0
15.8114 -9 0.0
21.9642 -9 0.0
28.1171 -9 0.0
39.0585 -9 0.0
50 -9 0.0
0 -9.5 0.0
1 -9.5 0.0
2 -9.5 0.0
3 -9.5 0.0
4 -9.5 0.0
5 -9.5 0.0
8.8914 -9.5 0.0
15.8114 -9.5 0.0
28.1171 -9.5 0.0
50 -9.5 0.0
0 -10 0.0
0.5 -10 0.0
1 -10 0.0
1.5 -10 0.0
2 -10 0.0
2.5 -10 0.0
3 -10 0.0
3.5 -10 0.0
4 -10 0.0
4.5 -10 0.0
5 -10 0.0
6.9457 -10 0.0
8.8914 -10 0.0
12.3514 -10 0.0
15.8114 -10 0.0
21.9642 -10 0.0
28.1171 -10 0.0
39.0585 -10 0.0
50 -10 0.0
0 -10.5 0.0
1 -10.5 0.0
2 -10.5 0.0
3 -10.5 0.0
4 -10.5 0.0
5 -10.5 0.0
8.8914 -10.5 0.0
15.8114 -10.5 0.0
28.1171 -10.5 0.0
50 -10.5 0.0
0 -11 0.0
0.5 -11 0.0
1 -11 0.0
1.5 -11 0.0
2 -11 0.0
2.5 -11 0.0
3 -11 0.0
3.5 -11 0.0
4 -11 0.0
4.5 -11 0.0
5 -11 0.0
6.9457 -11 0.0
8.8914 -11 0.0
12.3514 -11 0.0
15.8114 -11 0.0
21.9642 -11 0.0
28.1171 -11 0.0
39.0585 -11 0.0
50 -11 0.0
0 -11.5 0.0
1 -11.5 0.0
2 -11.5 0.0
3 -11.5 0.0
4 -11.5 0.0
5 -11.5 0.0
8.8914 -11.5 0.0
15.8114 -11.5 0.0
28.1171 -11.5 0.0
50 -11.5 0.0
0 -12 0.0
0.5 -12 0.0
1 -12 0.0
1.5 -12 0.0
2 -12 0.0
2.5 -12 0.0
3 -12 0.0
3.5 -12 0.0
4 -12 0.0
4.5 -12 0.0
5 -12 0.0
6.9457 -12 0.0
8.8914 -12 0.0
12.3514 -12 0.0
15.8114 -12 0.0
21.9642 -12 0.0
28.1171 -12 0.0
39.0585 -12 0.0
50 -12 0.0
0 -12.5 0.0
1 -12.5 0.0
2 -12.5 0.0
3 -12.5 0.0
4 -12.5 0.0
5 -12.5 0.0
8.8914 -12.5 0.0
15.8114 -12.5 0.0
28.1171 -12.5 0.0
50 -12.5 0.0
0 -13 0.0
0.5 -13 0.0
1 -13 0.0
1.5 -13 0.0
2 -13 0.0
2.5 -13 0.0
3 -13 0.0
3.5 -13 0.0
4 -13 0.0
4.5 -13 0.0
5 -13 0.0
6.9457 -13 0.0
8.8914 -13 0.0
12.3514 -13 0.0
15.8114 -13 0.0
21.9642 -13 0.0
28.1171 -13 0.0
39.0585 -13 0.0
50 -13 0.0
0 -13.5 0.0
1 -13.5 0.0
2 -13.5 0.0
3 -13.5 0.0
4 -13.5 0.0
5 -13.5 0.0
8.8914 -13.5 0.0
15.8114 -13.5 0.0
28.1171 -13.5 0.0
50 -13.5 0.0
0 -14 0.0
0.5 -14 0.0
1 -14 0.0
1.5 -14 0.0
2 -14 0.0
2.5 -14 0.0
3 -14 0.0
3.5 -14 0.0
4 -14 0.0
4.5 -14 0.0
5 -14 0.0
6.9457 -14 0.0
8.8914 -14 0.0
12.3514 -14 0.0
15.8114 -14 0.0
21.9642 -14 0.0
28.1171 -14 0.0
39.0585 -14 0.0
50 -14 0.0
0 -14.5 0.0
1 -14.5 0.0
2 -14.5 0.0
3 -14.5 0.0
4 -14.5 0.0
5 -14.5 0.0
8.8914 -14.5 0.0
15.8114 -14.5 0.0
28.1171 -14.5 0.0
50 -14.5 0.0
0 -15 0.0
0.5 -15 0.0
1 -15 0.0
1.5 -15 0.0
2 -15 0.0
2.5 -15 0.0
3 -15 0.0
3.5 -15 0.0
4 -15 0.0
4.5 -15 0.0
5 -15 0.0
6.9457 -15 0.0
8.8914 -15 0.0
12.3514 -15 0.0
15.8114 -15 0.0
21.9642 -15 0.0
28.1171 -15 0.0
39.0585 -15 0.0
50 -15 0.0
0 -16.5 0.0
1 -16.5 0.0
2 -16.5 0.0
3 -16.5 0.0
4 -16.5 0.0
5 -16.5 0.0
8.8914 -16.5 0.0
15.8114 -16.5 0.0
28.1171 -16.5 0.0
50 -16.5 0.0
0 -18 0.0
0.5 -18 0.0
1 -18 0.0
1.5 -18 0.0
2 -18 0.0
2.5 -18 0.0
3 -18 0.0
3.5 -18 0.0
4 -18 0.0
4.5 -18 0.0
5 -18 0.0
6.9457 -18 0.0
8.8914 -18 0.0
12.3514 -18 0.0
15.8114 -18 0.0
21.9642 -18 0.0
28.1171 -18 0.0
39.0585 -18 0.0
50 -18 0.0
0 -19.5 0.0
1 -19.5 0.0
2 -19.5 0.0
3 -19.5 0.0
4 -19.5 0.0
5 -19.5 0.0
8.8914 -19.5 0.0
15.8114 -19.5 0.0
28.1171 -19.5 0.0
50 -19.5 0.0
0 -21 0.0
0.5 -21 0.0
1 -21 0.0
1.5 -21 0.0
2 -21 0.0
2.5 -21 0.0
3 -21 0.0
3.5 -21 0.0
4 -21 0.0
4.5 -21 0.0
5 -21 0.0
6.9457 -21 0.0
8.8914 -21 0.0
12.3514 -21 0.0
15.8114 -21 0.0
21.9642 -21 0.0
28.1171 -21 0.0
39.0585 -21 0.0
50 -21 0.0
0 -22.5 0.0
1 -22.5 0.0
2 -22.5 0.0
3 -22.5 0.0
4 -22.5 0.0
5 -22.5 0.0
8.8914 -22.5 0.0
15.8114 -22.5 0.0
28.1171 -22.5 0.0
50 -22.5 0.0
0 -24 0.0
0.5 -24 0.0
1 -24 0.0
1.5 -24 0.0
2 -24 0.0
2.5 -24 0.0
3 -24 0.0
3.5 -24 0.0
4 -24 0.0
4.5 -24 0.0
5 -24 0.0
6.9457 -24 0.0
8.8914 -24 0.0
12.3514 -24 0.0
15.8114 -24 0.0
21.9642 -24 0.0
28.1171 -24 0.0
39.0585 -24 0.0
50 -24 0.0
0 -25.5 0.0
1 -25.5 0.0
2 -25.5 0.0
3 -25.5 0.0
4 -25.5 0.0
5 -25.5 0.0
8.8914 -25.5 0.0
15.8114 -25.5 0.0
28.1171 -25.5 0.0
50 -25.5 0.0
0 -27 0.0
0.5 -27 0.0
1 -27 0.0
1.5 -27 0.0
2 -27 0.0
2.5 -27 0.0
3 -27 0.0
3.5 -27 0.0
4 -27 0.0
4.5 -27 0.0
5 -27 0.0
6.9457 -27 0.0
8.8914 -27 0.0
12.3514 -27 0.0
15.8114 -27 0.0
21.9642 -27 0.0
28.1171 -27 0.0
39.0585 -27 0.0
50 -27 0.0
0 -28.5 0.0
1 -28.5 0.0
2 -28.5 0.0
3 -28.5 0.0
4 -28.5 0.0
5 -28.5 0.0
8.8914 -28.5 0.0
15.8114 -28.5 0.0
28.1171 -28.5 0.0
50 -28.5 0.0
0 -30 0.0
0.5 -30 0.0
1 -30 0.0
1.5 -30 0.0
2 -30 0.0
2.5 -30 0.0
3 -30 0.0
3.5 -30 0.0
4 -30 0.0
4.5 -30 0.0
5 -30 0.0
6.9457 -30 0.0
8.8914 -30 0.0
12.3514 -30 0.0
15.8114 -30 0.0
21.9642 -30 0.0
28.1171 -30 0.0
39.0585 -30 0.0
50 -30 0.0
0 -31.5 0.0
1 -31.5 0.0
2 -31.5 0.0
3 -31.5 0.0
4 -31.5 0.0
5 -31.5 0.0
8.8914 -31.5 0.0
15.8114 -31.5 0.0
28.1171 -31.5 0.0
50 -31.5 0.0
0 -33 0.0
0.5 -33 0.0
1 -33 0.0
1.5 -33 0.0
2 -33 0.0
2.5 -33 0.0
3 -33 0.0
3.5 -33 0.0
4 -33 0.0
4.5 -33 0.0
5 -33 0.0
6.9457 -33 0.0
8.8914 -33 0.0
12.3514 -33 0.0
15.8114 -33 0.0
21.9642 -33 0.0
28.1171 -33 0.0
39.0585 -33 0.0
50 -33 0.0
0 -34.5 0.0
1 -34.5 0.0
2 -34.5 0.0
3 -34.5 0.0
4 -34.5 0.0
5 -34.5 0.0
8.8914 -34.5 0.0
15.8114 -34.5 0.0
28.1171 -34.5 0.0
50 -34.5 0.0
0 -36 0.0
0.5 -36 0.0
1 -36 0.0
1.5 -36 0.0
2 -36 0.0
2.5 -36 0.0
3 -36 0.0
3.5 -36 0.0
4 -36 0.0
4.5 -36 0.0
5 -36 0.0
6.9457 -36 0.0
8.8914 -36 0.0
12.3514 -36 0.0
15.8114 -36 0.0
21.9642 -36 0.0
28.1171 -36 0.0
39.0585 -36 0.0
50 -36 0.0
0 -37.5 0.0
1 -37.5 0.0
2 -37.5 0.0
3 -37.5 0.0
4 -37.5 0.0
5 -37.5 0.0
8.8914 -37.5 0.0
15.8114 -37.5 0.0
28.1171 -37.5 0.0
50 -37.5 0.0
0 -39 0.0
0.5 -39 0.0
1 -39 0.0
1.5 -39 0.0
2 -39 0.0
2.5 -39 0.0
3 -39 0.0
3.5 -39 0.0
4 -39 0.0
4.5 -39 0.0
5 -39 0.0
6.9457 -39 0.0
8.8914 -39 0.0
12.3514 -39 0.0
15.8114 -39 0.0
21.9642 -39 0.0
28.1171 -39 0.0
39.0585 -39 0.0
50 -39 0.0
0 -40.5 0.0
1 -40.5 0.0
2 -40.5 0.0
3 -40.5 0.0
4 -40.5 0.0
5 -40.5 0.0
8.8914 -40.5 0.0
15.8114 -40.5 0.0
28.1171 -40.5 0.0
50 -40.5 0.0
0 -42 0.0
0.5 -42 0.0
1 -42 0.0
1.5 -42 0.0
2 -42 0.0
2.5 -42 0.0
3 -42 0.0
3.5 -42 0.0
4 -42 0.0
4.5 -42 0.0
5 -42 0.0
6.9457 -42 0.0
8.8914 -42 0.0
12.3514 -42 0.0
15.8114 -42 0.0
21.9642 -42 0.0
28.1171 -42 0.0
39.0585 -42 0.0
50 -42 0.0
0 -43.5 0.0
1 -43.5 0.0
2 -43.5 0.0
3 -43.5 0.0
4 -43.5 0.0
5 -43.5 0.0
8.8914 -43.5 0.0
15.8114 -43.5 0.0
28.1171 -43.5 0.0
50 -43.5 0.0
0 -45 0.0
0.5 -45 0.0
1 -45 0.0
1.5 -45 0.0
2 -45 0.0
2.5 -45 0.0
3 -45 0.0
3.5 -45 0.0
4 -45 0.0
4.5 -45 0.0
5 -45 0.0
6.9457 -45 0.0
8.8914 -45 0.0
12.3514 -45 0.0
15.8114 -45 0.0
21.9642 -45 0.0
28.1171 -45 0.0
39.0585 -45 0.0
50 -45 0.0
0 -50.5 0.0
1 -50.5 0.0
2 -50.5 0.0
3 -50.5 0.0
4 -50.5 0.0
5 -50.5 0.0
8.8914 -50.5 0.0
15.8114 -50.5 0.0
28.1171 -50.5 0.0
50 -50.5 0.0
0 -56 0.0
0.5 -56 0.0
1 -56 0.0
1.5 -56 0.0
2 -56 0.0
2.5 -56 0.0
3 -56 0.0
3.5 -56 0.0
4 -56 0.0
4.5 -56 0.0
5 -56 0.0
6.9457 -56 0.0
8.8914 -56 0.0
12.3514 -56 0.0
15.8114 -56 0.0
21.9642 -56 0.0
28.1171 -56 0.0
39.0585 -56 0.0
50 -56 0.0
0 -61.5 0.0
1 -61.5 0.0
2 -61.5 0.0
3 -61.5 0.0
4 -61.5 0.0
5 -61.5 0.0
8.8914 -61.5 0.0
15.8114 -61.5 0.0
28.1171 -61.5 0.0
[...]
POINT_DATA 889
SCALARS Displacement_R double 1
LOOKUP_TABLE default
0
-2.8817e-05
-5.72966e-05
-8.51165e-05
-0.000111933
-0.000137632
-0.000161837
-0.000184767
-0.000205213
-0.00022172
-0.000234451
-0.000250293
-0.000242779
-0.000215838
-0.000182854
-0.00013678
-9.40467e-05
-4.41672e-05
0
0
-3.9824e-05
-7.74454e-05
-0.000110513
-0.000135821
-0.000153862
-0.000182129
-0.000143533
-7.63585e-05
0
0
-1.22331e-05
-2.42224e-05
-3.5796e-05
-4.66602e-05
-5.6591e-05
-6.52219e-05
-7.2611e-05
-7.84722e-05
-8.27746e-05
-8.92315e-05
-0.000114472
-0.000123314
-0.000117118
-0.000104709
-8.16058e-05
-5.87083e-05
-2.78316e-05
0
0
-1.01189e-05
-1.9026e-05
-2.56131e-05
-2.96575e-05
-3.55671e-05
-6.70434e-05
-6.59239e-05
-4.08823e-05
0
0
1.4645e-06
2.99e-06
4.58291e-06
6.33509e-06
8.29295e-06
1.03512e-05
1.23112e-05
1.36928e-05
1.39398e-05
1.28846e-05
3.40462e-07
-1.21604e-05
-2.27623e-05
-2.74187e-05
-2.76285e-05
-2.31098e-05
-1.17408e-05
0
0
1.5629e-05
3.07478e-05
4.45048e-05
5.51632e-05
6.00028e-05
4.20146e-05
1.07795e-05
-5.39337e-06
0
0
1.43554e-05
2.85135e-05
4.23158e-05
5.55301e-05
6.79837e-05
7.93575e-05
8.93311e-05
9.75888e-05
0.000103931
0.000108265
0.000108952
9.62365e-05
7.00491e-05
4.88045e-05
2.58087e-05
1.22707e-05
4.23809e-06
0
0
4.23469e-05
8.2252e-05
0.000117062
0.000144062
0.000160794
0.000151597
8.64398e-05
2.96643e-05
0
0
2.91457e-05
5.78588e-05
8.57928e-05
0.000112451
0.00013738
0.000160105
0.000180081
0.00019713
0.00021085
0.000221079
0.000227569
0.000208436
0.000163889
0.000123993
7.93183e-05
4.70083e-05
2.02303e-05
0
0
6.34335e-05
0.000123294
0.000175674
0.000216582
0.00024361
0.000234881
0.000147554
6.11542e-05
0
0
3.42896e-05
6.80672e-05
0.000100933
0.000132287
0.000161669
0.000188509
0.000212383
0.000232811
0.000249421
0.000262389
0.000276655
0.000259877
0.000214981
0.000171007
0.000117092
7.52845e-05
3.29979e-05
0
0
7.18844e-05
0.000139674
0.000199125
0.000246237
0.000278554
0.000283395
0.000194177
8.93834e-05
0
0
3.77729e-05
7.49768e-05
0.000111147
0.000145679
0.000178074
0.000207786
0.000234377
0.000257433
0.000276706
0.000292114
0.000316092
0.000305652
0.000263541
0.000217254
0.000154716
0.000103466
4.57197e-05
0
0
7.74632e-05
0.000150532
0.000214887
0.000266772
0.000303923
0.000326627
0.000240078
0.000117513
0
0
4.00196e-05
7.94388e-05
0.000117779
0.000154427
0.000188901
0.000220686
0.000249376
0.000274634
0.000296201
0.00031401
0.000348519
0.000346573
0.000309971
0.000262827
0.000192228
0.000131544
5.8402e-05
0
0
8.10136e-05
0.000157574
0.000225484
0.000281306
0.000322987
0.000365527
0.000285376
0.000145535
0
0
4.14326e-05
8.2268e-05
0.00012203
0.000160131
0.000196109
0.000229496
0.000259926
0.000287097
0.000310781
0.000330919
0.000376111
0.000383705
0.00035469
0.000307871
0.000229659
0.000159511
7.10499e-05
0
0
8.3293e-05
0.000162266
0.000232956
0.000292232
0.000338233
0.000401201
0.000330228
0.000173446
0
0
4.23638e-05
8.41563e-05
0.000124922
0.00016411
0.00020129
0.000236036
0.000268011
0.000296947
0.000322642
0.000345028
0.000400696
0.000418185
0.000398153
0.000352555
0.000267049
0.000187366
8.36688e-05
0
0
8.49294e-05
0.000165794
0.000238912
0.000301419
0.000351588
0.000434793
0.00037481
0.000201243
0
0
4.30995e-05
8.56667e-05
0.000127276
0.000167419
0.000205698
0.000241722
0.000275179
0.000305824
0.000333473
0.00035804
0.000423829
0.000451151
0.000440854
0.000397065
0.000304436
0.000215103
9.62636e-05
0
0
8.64214e-05
0.000169085
0.000244596
0.000310308
0.000364561
0.000467419
0.000419314
0.00022892
0
0
4.38632e-05
8.72368e-05
0.000129728
0.000170872
0.000210298
0.000247648
0.000282625
0.000314998
0.000344591
0.000371301
0.000446837
0.000483693
0.000483315
0.000441598
0.000341868
0.00024272
0.00010884
0
0
8.81513e-05
0.000172852
0.000250969
0.000320019
0.000378357
0.000500142
0.000463941
0.000256476
0
0
4.48248e-05
8.91996e-05
0.000132764
0.000175087
0.000215829
0.000254652
0.000291275
0.000325464
0.000357043
0.000385897
0.000470867
0.000516843
0.000526074
0.000486359
0.000379397
0.000270212
0.000121402
0
0
9.04099e-05
0.000177633
0.000258764
0.000331438
0.000393961
0.000533965
0.000508901
0.000283903
0
0
4.61121e-05
9.18094e-05
0.000136749
0.00018054
0.000222853
0.000263379
0.00030184
0.000338011
0.00037168
0.000402725
0.000496909
0.000551575
0.000569679
0.000531562
0.000417079
0.000297573
0.000133958
0
0
9.34134e-05
0.000183842
0.000268543
0.000345255
0.000412207
0.000569835
0.00055441
0.000311195
0
0
4.78268e-05
9.52503e-05
0.000141974
0.000187586
0.000231816
0.000274325
0.00031488
0.000353228
0.00038922
0.000422572
0.000525823
0.000588808
0.000614676
0.000577423
0.000454978
0.000324795
0.000146512
0
0
9.735e-05
0.000191827
0.00028078
0.00036204
0.0004339
0.000608663
0.000600686
0.000338344
0
0
5.00364e-05
9.97174e-05
0.000148638
0.000196571
0.000243049
0.000287963
0.000330826
0.000371659
0.000410116
0.000446274
0.000558328
0.000629443
0.0006616
0.000624162
0.000493165
0.000351869
0.000159073
0
0
7.33505e-05
0.000145136
0.000213831
0.000278076
0.000336664
0.000498723
0.00054416
0.00033671
0
0
2.80287e-05
5.59531e-05
8.36261e-05
0.000111
0.000137872
0.000164259
0.000189913
0.000214894
0.000238941
0.000262093
0.00034106
0.00040332
0.000463878
0.000472637
0.000414723
0.000318737
0.000149016
0
0
4.42589e-05
8.79395e-05
0.000130475
0.000171311
0.000209938
0.000331703
0.000413277
0.000299401
0
0
1.79699e-05
3.58904e-05
5.37165e-05
7.14036e-05
8.88974e-05
0.000106161
0.00012314
0.000139804
0.000156091
0.000172004
0.000229152
0.000277823
0.000336081
0.000361644
0.00034342
0.000278954
0.000136391
0
0
2.97974e-05
5.93349e-05
8.835e-05
0.000116582
0.000143774
0.000235147
0.000318238
0.000259178
0
0
1.25901e-05
2.51566e-05
3.76738e-05
5.01228e-05
6.24709e-05
7.47064e-05
8.67913e-05
9.87174e-05
0.000110442
0.000121954
0.000164286
0.00020177
0.000251875
0.00028085
0.00028202
0.00023934
0.000122109
0
0
2.15465e-05
4.29472e-05
6.40549e-05
8.47204e-05
0.000104798
0.000174507
0.000248791
0.000220798
0
0
9.3334e-06
1.86516e-05
2.79416e-05
3.71882e-05
4.63766e-05
5.54928e-05
6.45218e-05
7.34496e-05
8.22542e-05
9.09304e-05
0.000123169
0.000152352
0.000193931
0.00022117
0.000230857
0.000202779
0.000107299
0
0
1.62917e-05
3.24892e-05
4.8497e-05
6.42173e-05
7.95565e-05
0.000133801
0.000197043
0.000186183
0
0
7.16912e-06
1.43279e-05
2.14674e-05
2.85773e-05
3.56472e-05
4.26684e-05
4.96304e-05
5.6524e-05
6.33363e-05
7.00598e-05
9.51834e-05
0.000118227
0.000152302
0.000176147
0.000188873
0.00017039
9.28655e-05
0
0
1.26732e-05
2.52796e-05
3.77519e-05
5.00219e-05
6.20223e-05
0.000104919
0.00015764
0.000155937
0
0
5.63347e-06
1.12593e-05
1.68712e-05
2.24615e-05
2.8023e-05
3.35486e-05
3.90314e-05
4.44641e-05
4.98392e-05
5.51502e-05
7.50604e-05
9.34673e-05
0.00012128
0.000141497
0.000154616
0.000142381
7.94095e-05
0
0
1.00404e-05
2.0031e-05
2.99216e-05
3.96621e-05
4.92018e-05
8.35227e-05
0.000127062
0.000130002
0
0
4.49248e-06
8.97919e-06
1.34553e-05
1.79149e-05
2.23527e-05
2.67632e-05
3.11412e-05
3.5481e-05
3.97782e-05
4.40266e-05
5.99876e-05
7.48138e-05
9.75014e-05
0.000114379
0.000126686
0.000118512
6.7262e-05
0
0
8.04945e-06
1.60605e-05
2.39947e-05
3.18134e-05
3.94775e-05
6.71582e-05
0.000102971
0.000108022
0
0
3.61683e-06
7.22914e-06
1.08332e-05
1.44243e-05
1.79986e-05
2.15517e-05
2.50794e-05
2.85777e-05
3.20429e-05
3.54704e-05
4.83606e-05
6.03745e-05
7.88969e-05
9.28812e-05
0.000103883
9.83587e-05
5.65526e-05
0
0
6.50255e-06
1.29747e-05
1.9386e-05
2.57064e-05
3.19061e-05
5.43524e-05
8.37716e-05
8.95276e-05
0
0
2.92995e-06
5.85631e-06
8.77616e-06
1.16857e-05
1.45817e-05
1.74607e-05
2.03194e-05
2.31542e-05
2.59629e-05
2.87411e-05
3.9207e-05
4.89694e-05
6.4134e-05
7.56754e-05
8.52286e-05
8.14373e-05
4.72791e-05
0
0
5.27967e-06
1.05355e-05
1.57431e-05
2.08784e-05
2.59154e-05
4.41881e-05
6.83655e-05
7.40175e-05
0
0
2.38268e-06
4.76254e-06
7.1369e-06
9.50331e-06
1.18588e-05
1.42012e-05
1.65273e-05
1.88352e-05
2.1122e-05
2.33855e-05
3.19015e-05
3.98806e-05
5.22431e-05
6.18619e-05
6.99548e-05
6.72404e-05
3.93693e-05
0
0
3.29072e-06
6.5667e-06
9.81304e-06
1.3015e-05
1.61581e-05
2.75766e-05
4.28436e-05
4.74011e-05
0
0
1.13745e-06
2.27363e-06
3.40728e-06
4.53729e-06
5.6621e-06
6.78094e-06
7.89198e-06
8.99471e-06
1.00871e-05
1.11688e-05
1.52432e-05
1.90744e-05
2.50375e-05
2.97551e-05
3.3956e-05
3.33308e-05
1.95786e-05
0
0
1.58688e-06
3.16676e-06
4.73268e-06
6.27778e-06
7.79535e-06
1.33166e-05
2.07674e-05
2.33169e-05
0
0
5.52249e-07
1.10387e-06
1.6543e-06
2.20296e-06
2.74915e-06
3.29242e-06
3.83198e-06
4.36748e-06
4.89797e-06
5.42328e-06
7.40361e-06
9.26499e-06
1.21643e-05
1.44586e-05
1.66503e-05
1.63905e-05
9.66595e-06
0
0
7.77107e-07
1.55081e-06
2.31772e-06
3.07449e-06
3.81792e-06
6.52416e-06
1.02076e-05
1.15229e-05
0
0
2.73809e-07
5.4732e-07
8.20255e-07
1.09233e-06
1.36322e-06
1.6327e-06
1.90039e-06
2.16611e-06
2.42937e-06
2.69013e-06
3.67559e-06
4.60397e-06
6.04296e-06
7.18738e-06
8.27772e-06
8.16514e-06
4.82584e-06
0
0
3.85126e-07
7.68593e-07
1.14874e-06
1.52395e-06
1.89268e-06
3.23423e-06
5.06627e-06
5.73088e-06
0
0
1.28778e-07
2.57406e-07
3.85768e-07
5.13705e-07
6.41095e-07
7.67784e-07
8.93645e-07
1.01853e-06
1.14223e-06
1.26469e-06
1.72905e-06
2.16473e-06
2.84792e-06
3.38762e-06
3.9192e-06
3.85219e-06
2.29304e-06
0
0
1.4032e-07
2.80037e-07
4.18569e-07
5.55348e-07
6.89921e-07
1.17894e-06
1.85088e-06
2.11642e-06
0
0
0
0
0
0
0
0
0
0
0
0
0
0
0
0
0
0
0
0
SCALARS Displacement_Z double 1
LOOKUP_TABLE default
0.00328727
0.00328266
0.00326872
0.00324569
0.0032136
0.00317252
0.00312254
0.00306388
0.0029947
0.00291437
0.00281205
0.00248827
0.00222469
0.00183051
0.00151825
0.0011059
0.000826728
0.000545861
0.000460556
0.0032981
0.00327913
0.00322261
0.00312965
0.00299875
0.00282189
0.00222926
0.00151901
0.00082621
0.000459619
0.00330056
0.00329568
0.00328118
0.00325712
0.00322361
0.00318072
0.00312852
0.00306718
0.00299662
0.0029153
0.00282774
0.00250621
0.00223318
0.00183459
0.0015198
0.00110558
0.00082584
0.000544502
0.000458863
0.00329602
0.00327639
0.00321799
0.00312196
0.00298954
0.00282863
0.00223583
0.0015204
0.000825581
0.00045831
0.00328544
0.00328048
0.00326567
0.00324112
0.00320696
0.00316336
0.0031107
0.00304947
0.00298035
0.00290467
0.00282506
0.00251375
0.00223737
0.00183721
0.00152104
0.00110578
0.000825461
0.000543764
0.000457938
0.00326953
0.00324982
0.00319132
0.00309594
0.00296826
0.00281831
0.00223764
0.00152144
0.000825432
0.000457744
0.00324819
0.00324329
0.00322872
0.00320456
0.00317104
0.00312849
0.00307749
0.00301871
0.00295327
0.0028824
0.00280758
0.00250916
0.00223667
0.00183801
0.00152187
0.00110647
0.000825537
0.000543661
0.000457731
0.00322105
0.00320204
0.00314576
0.00305472
0.00293455
0.00279391
0.00223436
0.00152205
0.000825743
0.000457907
0.00318686
0.00318229
0.00316849
0.00314572
0.00311411
0.00307421
0.00302647
0.00297172
0.00291092
0.00284531
0.00277652
0.00249366
0.00223112
0.00183727
0.00152226
0.00110762
0.000826085
0.000544173
0.000458262
0.00311775
0.00310058
0.00304987
0.0029684
0.00286118
0.00273628
0.00221842
0.00152033
0.000825739
0.000458404
0.00305217
0.00304812
0.00303614
0.00301629
0.00298894
0.00295438
0.00291325
0.0028661
0.00281382
0.00275723
0.00269727
0.00244801
0.00220551
0.00182794
0.00151825
0.00110673
0.000825369
0.000543995
0.000458555
0.00299005
0.00297513
0.00293124
0.00286097
0.00276866
0.00266029
0.00219271
0.00151607
0.000824957
0.000458681
0.00293139
0.00292789
0.00291752
0.00290037
0.00287675
0.00284696
0.0028115
0.0027709
0.0027258
0.00267675
0.00262457
0.00240355
0.00217972
0.00181783
0.00151372
0.00110544
0.000824521
0.00054382
0.000458814
0.00287612
0.00286323
0.00282536
0.00276478
0.00268502
0.00259064
0.00216683
0.00151124
0.00082404
0.000458925
0.00282415
0.00282113
0.00281218
0.00279738
0.00277701
0.0027513
0.00272067
0.00268554
0.00264639
0.00260367
0.00255797
0.00236066
0.00215379
0.00180697
0.0015086
0.00110377
0.000823536
0.000543647
0.000459042
0.00277536
0.00276423
0.00273153
0.00267909
0.00260973
0.00252693
0.00214086
0.00150583
0.000822986
0.000459137
0.00272964
0.00272702
0.00271928
0.00270648
0.00268884
0.00266654
0.00263992
0.0026093
0.00257504
0.0025375
0.00249713
0.00231962
0.00212784
0.00179537
0.0015029
0.00110172
0.000822414
0.000543475
0.00045924
0.00268682
0.00267718
0.00264877
0.00260305
0.00254217
0.0024688
0.00211496
0.00149983
0.000821795
0.000459323
0.0026468
0.00264452
0.00263778
0.00262663
0.00261122
0.00259171
0.00256835
0.00254138
0.00251109
0.00247775
0.00244169
0.0022806
0.00210204
0.00178309
0.00149659
0.00109932
0.000821157
0.000543302
0.000459412
0.00260937
0.00260093
0.00257601
0.00253571
0.00248167
0.00241591
0.0020893
0.00149323
0.000820471
0.000459484
0.00257442
0.00257242
0.00256648
0.00255664
0.00254303
0.00252575
0.002505
0.00248096
0.00245384
0.00242386
0.00239127
0.0022437
0.00207655
0.00177018
0.0014897
0.00109657
0.000819766
0.000543128
0.000459562
0.00254175
0.00253426
0.00251211
0.00247611
0.00242749
0.00236782
0.00206403
0.00148605
0.000819014
0.000459624
0.00251122
0.00250944
0.00250413
0.00249533
0.00248313
0.00246761
0.00244891
0.00242717
0.00240256
0.00237524
0.00234543
0.00220892
0.00205152
0.00175671
0.00148225
0.0010935
0.000818243
0.000542951
0.000459691
0.00248265
0.00247592
0.00245592
0.00242328
0.00237893
0.00232409
0.00203925
0.00147832
0.000817427
0.000459745
0.00245591
0.00245429
0.00244947
0.00244147
0.00243036
0.0024162
0.0023991
0.00237916
0.00235652
0.00233131
0.00230369
0.00217617
0.00202703
0.00174278
0.00147425
0.00109014
0.000816592
0.000542773
0.000459805
0.0024308
0.00242463
0.00240629
0.00237624
0.00233523
0.0022842
0.00201505
0.00147006
0.000815712
0.000459852
0.0024072
0.0024057
0.00240125
0.00239386
0.00238358
0.00237046
0.0023546
0.00233606
0.00231497
0.00229141
0.00226553
0.0021453
0.00200313
0.00172848
0.00146574
0.00108653
0.000814815
0.000542592
0.000459905
0.00238491
0.00237917
0.00236208
0.00233403
0.00229563
0.00224762
0.00199144
0.00146132
0.000813873
0.000459947
0.0023638
0.00236242
0.00235824
0.00235132
0.00234167
0.00232936
0.00231444
0.00229699
0.00227711
0.00225489
0.00223038
0.00211609
0.00197982
0.00171393
0.00145678
0.00108269
0.000812914
0.000542409
0.000459995
0.00234374
0.00233832
0.0023222
0.00229568
0.00225931
0.00221376
0.00196837
0.00145213
0.000811909
0.000460033
0.00232455
0.00232319
0.00231926
0.00231266
0.00230354
0.00229182
0.00227766
0.00226104
0.00224212
0.00222097
0.00219766
0.00208825
0.00195702
0.00169924
0.00144739
0.0010787
0.00081089
0.000542224
0.000460078
0.00206417
0.00206076
0.00205037
0.0020331
0.002009
0.00197797
0.00180603
0.00139104
0.000805774
0.000468318
0.0018645
0.00186382
0.00186198
0.00185882
0.0018545
0.00184885
0.00184201
0.00183384
0.00182447
0.00181385
0.00180205
0.00174426
0.00167125
0.00150668
0.00133062
0.00103356
0.000798573
0.000553598
0.000476042
0.00170379
0.00170189
0.00169619
0.00168665
0.00167325
0.00165603
0.00155322
0.00127187
0.000789949
0.000482718
0.00157118
0.0015708
0.00156967
0.00156776
0.00156511
0.00156168
0.00155749
0.0015525
0.00154675
0.00154021
0.0015329
0.00149676
0.00144917
0.00133895
0.00121318
0.000977657
0.00077943
0.000560182
0.000488661
0.00145859
0.00145734
0.00145357
0.00144725
0.00143836
0.00142681
0.00135726
0.00115757
0.000767798
0.000493654
0.00136137
0.0013611
0.0013603
0.00135896
0.00135709
0.00135467
0.00135171
0.0013482
0.00134415
0.00133955
0.00133441
0.00130903
0.00127545
0.00119714
0.00110395
0.000918517
0.000754703
0.000561841
0.000497704
0.00127592
0.001275
0.00127222
0.00126757
0.00126105
0.00125261
0.00120195
0.0010538
0.000740883
0.000500796
0.00120002
0.00119982
0.00119921
0.00119819
0.00119678
0.00119495
0.00119271
0.00119006
0.001187
0.00118354
0.00117967
0.0011607
0.00113568
0.00107735
0.00100619
0.000860103
0.000726062
0.000558948
0.000502806
0.00113184
0.00113113
0.00112898
0.0011254
0.00112038
0.00111391
0.00107532
0.000961784
0.000710862
0.000503882
0.00107016
0.00107
0.00106952
0.00106873
0.00106762
0.00106619
0.00106444
0.00106237
0.00105999
0.00105729
0.00105427
0.00103958
0.00102027
0.00097537
0.000919876
0.000804284
0.00069504
0.000552033
0.000503829
0.00101392
0.00101336
0.00101166
0.00100883
0.00100487
0.000999787
0.00096959
0.000880678
0.000679097
0.0005029
0.000962381
0.000962254
0.000961874
0.00096124
0.000960355
0.000959216
0.000957826
0.000956183
0.000954291
0.000952147
0.000949755
0.000938131
0.000922906
0.000887603
0.000843714
0.000751753
0.000662801
0.00054165
0.000500869
0.000914874
0.00091442
0.000913059
0.000910794
0.000907629
0.000903575
0.000879565
0.000808976
0.000646556
0.000498042
0.000870904
0.000870802
0.000870496
0.000869987
0.000869275
0.000868359
0.000867242
0.000865923
0.000864405
0.000862685
0.000860767
0.000851461
0.000839301
0.000811178
0.000776149
0.000702592
0.000630134
0.000528321
0.000494191
0.000830026
0.000829659
0.000828562
0.000826736
0.000824187
0.000820923
0.000801651
0.000745128
0.00061386
0.000489636
0.000791888
0.000791805
0.000791559
0.000791146
0.000790571
0.000789831
0.000788928
0.000787862
0.000786636
0.000785248
0.000783703
0.000776198
0.000766411
0.000743837
0.000715714
0.000656593
0.000597519
0.000512512
0.000484159
0.000756174
0.000755877
0.000754988
0.000753509
0.000751446
0.000748804
0.00073325
0.000687763
0.000581369
0.000478072
0.000722623
0.000722556
0.000722356
0.000722022
0.000721555
0.000720956
0.000720224
0.000719361
0.000718366
0.000717242
0.000715987
0.000709917
0.000701995
0.000683794
0.000661149
0.000613432
0.000565214
0.000494626
0.000471176
0.000691
0.000690758
0.000690037
0.000688838
0.000687167
0.000685026
0.000672434
0.000635712
0.000549259
0.000463762
0.000661108
0.000661051
0.000660889
0.000660616
0.000660238
0.00065975
0.000659157
0.000658455
0.000657651
0.000656741
0.000655731
0.000650786
0.000644402
0.000629627
0.000611382
0.000572769
0.000533332
0.000475003
0.000455653
0.000563472
0.000563325
0.00056288
0.000562141
0.000561111
0.00055979
0.000552054
0.000529516
0.000476646
0.00042255
0.000480297
0.00048027
0.000480195
0.000480067
0.000479891
0.000479663
0.000479388
0.00047906
0.000478686
0.000478263
0.000477794
0.000475484
0.000472521
0.000465668
0.000457223
0.000439336
0.00042059
0.000392339
0.000383047
0.000406799
0.00040673
0.000406524
0.000406182
0.000405705
0.000405092
0.000401515
0.000391085
0.000366408
0.000340721
0.000340077
0.000340065
0.00034003
0.000339972
0.000339892
0.000339787
0.000339661
0.000339512
0.000339341
0.000339149
0.000338935
0.000337877
0.00033652
0.000333408
0.000329594
0.000321329
0.000312665
0.000299505
0.000295171
0.000277926
0.000277896
0.000277805
0.000277653
0.000277441
0.000277168
0.000275587
0.000270938
0.000259896
0.000248302
0.000218956
0.000218951
0.000218936
0.000218912
0.000218878
0.000218834
0.000218781
0.000218718
0.000218646
0.000218566
0.000218476
0.000218025
0.000217448
0.000216142
0.000214525
0.000211021
0.000207351
0.000201704
0.000199881
0.000162132
0.00016212
0.000162085
0.000162027
0.000161946
0.000161841
0.000161239
0.00015947
0.000155278
0.00015083
0.000106878
0.000106876
0.000106871
0.000106864
0.000106853
0.00010684
0.000106823
0.000106804
0.000106782
0.000106758
0.000106731
0.000106589
0.000106412
0.000106011
0.00010552
0.000104438
0.00010332
0.000101522
0.000101009
5.28247e-05
5.28227e-05
5.28163e-05
5.28055e-05
5.27904e-05
5.27704e-05
5.26615e-05
5.23238e-05
5.1614e-05
5.08094e-05
-0
-0
-0
-0
-0
-0
-0
-0
-0
-0
-0
-0
-0
-0
-0
-0
-0
-0
-0
SCALARS Stress_R double 1
LOOKUP_TABLE default
35.1578
34.8185
34.5609
33.812
33.1649
31.9595
31.0969
29.9761
27.706
23.9753
14.6148
4.53451
0.467293
-0.857419
-1.76796
-1.73164
-1.58999
-1.33857
-1.27363
26.4849
26.0121
24.7208
22.3443
18.1638
12.0763
1.46371
-1.20581
-1.2451
-1.03891
19.1445
18.9055
18.7634
18.2351
17.7405
16.7883
15.8573
14.611
12.0056
11.675
10.5946
5.0769
1.66856
0.236565
-0.636126
-0.821184
-0.900926
-0.836098
-0.810994
11.6401
11.3611
10.6408
9.28565
7.47431
7.77408
2.17269
-0.106296
-0.583011
-0.596054
4.82216
4.76117
4.72725
4.60038
4.39311
4.20764
3.88171
3.78906
3.56801
3.80979
4.45552
2.74908
2.35305
1.07951
0.396852
0.0432515
-0.266326
-0.322167
-0.375704
-2.02116
-1.94561
-1.75874