# vtk DataFile Version 2.0
./vtk
ASCII

DATASET UNSTRUCTURED_GRID
POINTS 889 double
0 0 0.0
0.5 0 0.0
1 0 0.0
1.5 0 0.0
2 0 0.0
2.5 0 0.0
3 0 0.0
3.5 0 0.0
4 0 0.0
4.5 0 0.0
5 0 0.0
6.9457 0 0.0
8.8914 0 0.0
12.3514 0 0.0
15.8114 0 0.0
21.9642 0 0.0
28.1171 0 0.0
39.0585 0 0.0
50 0 0.0
0 -0.5 0.0
1 -0.5 0.0
2 -0.5 0.0
3 -0.5 0.0
4 -0.5 0.0
5 -0.5 0.0
8.8914 -0.5 0.0
15.8114 -0.5 0.0
28.1171 -0.5 0.0
50 -0.5 0.0
0 -1 0.0
0.5 -1 0.0
1 -1 0.0
1.5 -1 0.0
2 -1 0.0
2.5 -1 0.0
3 -1 0.0
3.5 -1 0.0
4 -1 0.0
4.5 -1 0.0
5 -1 0.0
6.9457 -1 0.0
8.8914 -1 0.0
12.3514 -1 0.0
15.8114 -1 0.0
21.9642 -1 0.0
28.1171 -1 0.0
39.0585 -1 0.0
50 -1 0.0
0 -1.5 0.0
1 -1.5 0.0
2 -1.5 0.0
3 -1.5 0.0
4 -1.5 0.0
5 -1.5 0.0
8.8914 -1.5 0.0
15.8114 -1.5 0.0
28.1171 -1.5 0.0
50 -1.5 0.0
0 -2 0.0
0.5 -2 0.0
1 -2 0.0
1.5 -2 0.0
2 -2 0.0
2.5 -2 0.0
3 -2 0.0
3.5 -2 0.0
4 -2 0.0
4.5 -2 0.0
5 -2 0.0
6.9457 -2 0.0
8.8914 -2 0.0
12.3514 -2 0.0
15.8114 -2 0.0
21.9642 -2 0.0
28.1171 -2 0.0
39.0585 -2 0.0
50 -2 0.0
0 -2.5 0.0
1 -2.5 0.0
2 -2.5 0.0
3 -2.5 0.0
4 -2.5 0.0
5 -2.5 0.0
8.8914 -2.5 0.0
15.8114 -2.5 0.0
28.1171 -2.5 0.0
50 -2.5 0.0
0 -3 0.0
0.5 -3 0.0
1 -3 0.0
1.5 -3 0.0
2 -3 0.0
2.5 -3 0.0
3 -3 0.0
3.5 -3 0.0
4 -3 0.0
4.5 -3 0.0
5 -3 0.0
6.9457 -3 0.0
8.8914 -3 0.0
12.3514 -3 0.0
15.8114 -3 0.0
21.9642 -3 0.0
28.1171 -3 0.0
39.0585 -3 0.0
50 -3 0.0
0 -3.5 0.0
1 -3.5 0.0
2 -3.5 0.0
3 -3.5 0.0
4 -3.5 0.0
5 -3.5 0.0
8.8914 -3.5 0.0
15.8114 -3.5 0.0
28.1171 -3.5 0.0
50 -3.5 0.0
0 -4 0.0
0.5 -4 0.0
1 -4 0.0
1.5 -4 0.0
2 -4 0.0
2.5 -4 0.0
3 -4 0.0
3.5 -4 0.0
4 -4 0.0
4.5 -4 0.0
5 -4 0.0
6.9457 -4 0.0
8.8914 -4 0.0
12.3514 -4 0.0
15.8114 -4 0.0
21.9642 -4 0.0
28.1171 -4 0.0
39.0585 -4 0.0
50 -4 0.0
0 -4.5 0.0
1 -4.5 0.0
2 -4.5 0.0
3 -4.5 0.0
4 -4.5 0.0
5 -4.5 0.0
8.8914 -4.5 0.0
15.8114 -4.5 0.0
28.1171 -4.5 0.0
50 -4.5 0.0
0 -5 0.0
0.5 -5 0.0
1 -5 0.0
1.5 -5 0.0
2 -5 0.0
2.5 -5 0.0
3 -5 0.0
3.5 -5 0.0
4 -5 0.0
4.5 -5 0.0
5 -5 0.0
6.9457 -5 0.0
8.8914 -5 0.0
12.3514 -5 0.0
15.8114 -5 0.0
21.9642 -5 0.0
28.1171 -5 0.0
39.0585 -5 0.0
50 -5 0.0
0 -5.5 0.0
1 -5.5 0.0
2 -5.5 0.0
3 -5.5 0.0
4 -5.5 0.0
5 -5.5 0.0
8.8914 -5.5 0.0
15.8114 -5.5 0.0
28.1171 -5.5 0.0
50 -5.5 0.0
0 -6 0.0
0.5 -6 0.0
1 -6 0.0
1.5 -6 0.0
2 -6 0.0
2.5 -6 0.0
3 -6 0.0
3.5 -6 0.0
4 -6 0.0
4.5 -6 0.0
5 -6 0.0
6.9457 -6 0.0
8.8914 -6 0.0
12.3514 -6 0.0
15.8114 -6 0.0
21.9642 -6 0.0
28.1171 -6 0.0
39.0585 -6 0.0
50 -6 0.0
0 -6.5 0.0
1 -6.5 0.0
2 -6.5 0.0
3 -6.5 0.0
4 -6.5 0.0
5 -6.5 0.0
8.8914 -6.5 0.0
15.8114 -6.5 0.0
28.1171 -6.5 0.0
50 -6.5 0.0
0 -7 0.0
0.5 -7 0.0
1 -7 0.0
1.5 -7 0.0
2 -7 0.0
2.5 -7 0.0
3 -7 0.0
3.5 -7 0.0
4 -7 0.0
4.5 -7 0.0
5 -7 0.0
6.9457 -7 0.0
8.8914 -7 0.0
12.3514 -7 0.0
15.8114 -7 0.0
21.9642 -7 0.0
28.1171 -7 0.0
39.0585 -7 0.0
50 -7 0.0
0 -7.5 0.0
1 -7.5 0.0
2 -7.5 0.0
3 -7.5 0.0
4 -7.5 0.0
5 -7.5 0.0
8.8914 -7.5 0.0
15.8114 -7.5 0.0
28.1171 -7.5 0.0
50 -7.5 0.0
0 -8 0.0
0.5 -8 0.0
1 -8 0.0
1.5 -8 0.0
2 -8 0.0
2.5 -8 0.0
3 -8 0.0
3.5 -8 0.0
4 -8 0.0
4.5 -8 0.0
5 -8 0.0
6.9457 -8 0.0
8.8914 -8 0.0
12.3514 -8 0.0
15.8114 -8 0.0
21.9642 -8 0.0
28.1171 -8 0.0
39.0585 -8 0.0
50 -8 0.0
0 -8.5 0.0
1 -8.5 0.0
2 -8.5 0.0
3 -8.5 0.0
4 -8.5 0.0
5 -8.5 0.0
8.8914 -8.5 0.0
15.8114 -8.5 0.0
28.1171 -8.5 0.0
50 -8.5 0.0
0 -9 0.0
0.5 -9 0.0
1 -9 0.0
1.5 -9 0.0
2 -9 0.0
2.5 -9 0.0
3 -9 0.0
3.5 -9 0.0
4 -9 0.0
4.5 -9 0.0
5 -9 0.0
6.9457 -9 0.0
8.8914 -9 0.0
12.3514 -9 0.0
15.8114 -9 0.0
21.9642 -9 0.0
28.1171 -9 0.0
39.0585 -9 0.0
50 -9 0.0
0 -9.5 0.0
1 -9.5 0.0
2 -9.5 0.0
3 -9.5 0.0
4 -9.5 0.0
5 -9.5 0.0
8.8914 -9.5 0.0
15.8114 -9.5 0.0
28.1171 -9.5 0.0
50 -9.5 0.0
0 -10 0.0
0.5 -10 0.0
1 -10 0.0
1.5 -10 0.0
2 -10 0.0
2.5 -10 0.0
3 -10 0.0
3.5 -10 0.0
4 -10 0.0
4.5 -10 0.0
5 -10 0.0
6.9457 -10 0.0
8.8914 -10 0.0
12.3514 -10 0.0
15.8114 -10 0.0
21.9642 -10 0.0
28.1171 -10 0.0
39.0585 -10 0.0
50 -10 0.0
0 -10.5 0.0
1 -10.5 0.0
2 -10.5 0.0
3 -10.5 0.0
4 -10.5 0.0
5 -10.5 0.0
8.8914 -10.5 0.0
15.8114 -10.5 0.0
28.1171 -10.5 0.0
50 -10.5 0.0
0 -11 0.0
0.5 -11 0.0
1 -11 0.0
1.5 -11 0.0
2 -11 0.0
2.5 -11 0.0
3 -11 0.0
3.5 -11 0.0
4 -11 0.0
4.5 -11 0.0
5 -11 0.0
6.9457 -11 0.0
8.8914 -11 0.0
12.3514 -11 0.0
15.8114 -11 0.0
21.9642 -11 0.0
28.1171 -11 0.0
39.0585 -11 0.0
50 -11 0.0
0 -11.5 0.0
1 -11.5 0.0
2 -11.5 0.0
3 -11.5 0.0
4 -11.5 0.0
5 -11.5 0.0
8.8914 -11.5 0.0
15.8114 -11.5 0.0
28.1171 -11.5 0.0
50 -11.5 0.0
0 -12 0.0
0.5 -12 0.0
1 -12 0.0
1.5 -12 0.0
2 -12 0.0
2.5 -12 0.0
3 -12 0.0
3.5 -12 0.0
4 -12 0.0
4.5 -12 0.0
5 -12 0.0
6.9457 -12 0.0
8.8914 -12 0.0
12.3514 -12 0.0
15.8114 -12 0.0
21.9642 -12 0.0
28.1171 -12 0.0
39.0585 -12 0.0
50 -12 0.0
0 -12.5 0.0
1 -12.5 0.0
2 -12.5 0.0
3 -12.5 0.0
4 -12.5 0.0
5 -12.5 0.0
8.8914 -12.5 0.0
15.8114 -12.5 0.0
28.1171 -12.5 0.0
50 -12.5 0.0
0 -13 0.0
0.5 -13 0.0
1 -13 0.0
1.5 -13 0.0
2 -13 0.0
2.5 -13 0.0
3 -13 0.0
3.5 -13 0.0
4 -13 0.0
4.5 -13 0.0
5 -13 0.0
6.9457 -13 0.0
8.8914 -13 0.0
12.3514 -13 0.0
15.8114 -13 0.0
21.9642 -13 0.0
28.1171 -13 0.0
39.0585 -13 0.0
50 -13 0.0
0 -13.5 0.0
1 -13.5 0.0
2 -13.5 0.0
3 -13.5 0.0
4 -13.5 0.0
5 -13.5 0.0
8.8914 -13.5 0.0
15.8114 -13.5 0.0
28.1171 -13.5 0.0
50 -13.5 0.0
0 -14 0.0
0.5 -14 0.0
1 -14 0.0
1.5 -14 0.0
2 -14 0.0
2.5 -14 0.0
3 -14 0.0
3.5 -14 0.0
4 -14 0.0
4.5 -14 0.0
5 -14 0.0
6.9457 -14 0.0
8.8914 -14 0.0
12.3514 -14 0.0
15.8114 -14 0.0
21.9642 -14 0.0
28.1171 -14 0.0
39.0585 -14 0.0
50 -14 0.0
0 -14.5 0.0
1 -14.5 0.0
2 -14.5 0.0
3 -14.5 0.0
4 -14.5 0.0
5 -14.5 0.0
8.8914 -14.5 0.0
15.8114 -14.5 0.0
28.1171 -14.5 0.0
50 -14.5 0.0
0 -15 0.0
0.5 -15 0.0
1 -15 0.0
1.5 -15 0.0
2 -15 0.0
2.5 -15 0.0
3 -15 0.0
3.5 -15 0.0
4 -15 0.0
4.5 -15 0.0
5 -15 0.0
6.9457 -15 0.0
8.8914 -15 0.0
12.3514 -15 0.0
15.8114 -15 0.0
21.9642 -15 0.0
28.1171 -15 0.0
39.0585 -15 0.0
50 -15 0.0
0 -16.5 0.0
1 -16.5 0.0
2 -16.5 0.0
3 -16.5 0.0
4 -16.5 0.0
5 -16.5 0.0
8.8914 -16.5 0.0
15.8114 -16.5 0.0
28.1171 -16.5 0.0
50 -16.5 0.0
0 -18 0.0
0.5 -18 0.0
1 -18 0.0
1.5 -18 0.0
2 -18 0.0
2.5 -18 0.0
3 -18 0.0
3.5 -18 0.0
4 -18 0.0
4.5 -18 0.0
5 -18 0.0
6.9457 -18 0.0
8.8914 -18 0.0
12.3514 -18 0.0
15.8114 -18 0.0
21.9642 -18 0.0
28.1171 -18 0.0
39.0585 -18 0.0
50 -18 0.0
0 -19.5 0.0
1 -19.5 0.0
2 -19.5 0.0
3 -19.5 0.0
4 -19.5 0.0
5 -19.5 0.0
8.8914 -19.5 0.0
15.8114 -19.5 0.0
28.1171 -19.5 0.0
50 -19.5 0.0
0 -21 0.0
0.5 -21 0.0
1 -21 0.0
1.5 -21 0.0
2 -21 0.0
2.5 -21 0.0
3 -21 0.0
3.5 -21 0.0
4 -21 0.0
4.5 -21 0.0
5 -21 0.0
6.9457 -21 0.0
8.8914 -21 0.0
12.3514 -21 0.0
15.8114 -21 0.0
21.9642 -21 0.0
28.1171 -21 0.0
39.0585 -21 0.0
50 -21 0.0
0 -22.5 0.0
1 -22.5 0.0
2 -22.5 0.0
3 -22.5 0.0
4 -22.5 0.0
5 -22.5 0.0
8.8914 -22.5 0.0
15.8114 -22.5 0.0
28.1171 -22.5 0.0
50 -22.5 0.0
0 -24 0.0
0.5 -24 0.0
1 -24 0.0
1.5 -24 0.0
2 -24 0.0
2.5 -24 0.0
3 -24 0.0
3.5 -24 0.0
4 -24 0.0
4.5 -24 0.0
5 -24 0.0
6.9457 -24 0.0
8.8914 -24 0.0
12.3514 -24 0.0
15.8114 -24 0.0
21.9642 -24 0.0
28.1171 -24 0.0
39.0585 -24 0.0
50 -24 0.0
0 -25.5 0.0
1 -25.5 0.0
2 -25.5 0.0
3 -25.5 0.0
4 -25.5 0.0
5 -25.5 0.0
8.8914 -25.5 0.0
15.8114 -25.5 0.0
28.1171 -25.5 0.0
50 -25.5 0.0
0 -27 0.0
0.5 -27 0.0
1 -27 0.0
1.5 -27 0.0
2 -27 0.0
2.5 -27 0.0
3 -27 0.0
3.5 -27 0.0
4 -27 0.0
4.5 -27 0.0
5 -27 0.0
6.9457 -27 0.0
8.8914 -27 0.0
12.3514 -27 0.0
15.8114 -27 0.0
21.9642 -27 0.0
28.1171 -27 0.0
39.0585 -27 0.0
50 -27 0.0
0 -28.5 0.0
1 -28.5 0.0
2 -28.5 0.0
3 -28.5 0.0
4 -28.5 0.0
5 -28.5 0.0
8.8914 -28.5 0.0
15.8114 -28.5 0.0
28.1171 -28.5 0.0
50 -28.5 0.0
0 -30 0.0
0.5 -30 0.0
1 -30 0.0
1.5 -30 0.0
2 -30 0.0
2.5 -30 0.0
3 -30 0.0
3.5 -30 0.0
4 -30 0.0
4.5 -30 0.0
5 -30 0.0
6.9457 -30 0.0
8.8914 -30 0.0
12.3514 -30 0.0
15.8114 -30 0.0
21.9642 -30 0.0
28.1171 -30 0.0
39.0585 -30 0.0
50 -30 0.0
0 -31.5 0.0
1 -31.5 0.0
2 -31.5 0.0
3 -31.5 0.0
4 -31.5 0.0
5 -31.5 0.0
8.8914 -31.5 0.0
15.8114 -31.5 0.0
28.1171 -31.5 0.0
50 -31.5 0.0
0 -33 0.0
0.5 -33 0.0
1 -33 0.0
1.5 -33 0.0
2 -33 0.0
2.5 -33 0.0
3 -33 0.0
3.5 -33 0.0
4 -33 0.0
4.5 -33 0.0
5 -33 0.0
6.9457 -33 0.0
8.8914 -33 0.0
12.3514 -33 0.0
15.8114 -33 0.0
21.9642 -33 0.0
28.1171 -33 0.0
39.0585 -33 0.0
50 -33 0.0
0 -34.5 0.0
1 -34.5 0.0
2 -34.5 0.0
3 -34.5 0.0
4 -34.5 0.0
5 -34.5 0.0
8.8914 -34.5 0.0
15.8114 -34.5 0.0
28.1171 -34.5 0.0
50 -34.5 0.0
0 -36 0.0
0.5 -36 0.0
1 -36 0.0
1.5 -36 0.0
2 -36 0.0
2.5 -36 0.0
3 -36 0.0
3.5 -36 0.0
4 -36 0.0
4.5 -36 0.0
5 -36 0.0
6.9457 -36 0.0
8.8914 -36 0.0
12.3514 -36 0.0
15.8114 -36 0.0
21.9642 -36 0.0
28.1171 -36 0.0
39.0585 -36 0.0
50 -36 0.0
0 -37.5 0.0
1 -37.5 0.0
2 -37.5 0.0
3 -37.5 0.0
4 -37.5 0.0
5 -37.5 0.0
8.8914 -37.5 0.0
15.8114 -37.5 0.0
28.1171 -37.5 0.0
50 -37.5 0.0
0 -39 0.0
0.5 -39 0.0
1 -39 0.0
1.5 -39 0.0
2 -39 0.0
2.5 -39 0.0
3 -39 0.0
3.5 -39 0.0
4 -39 0.0
4.5 -39 0.0
5 -39 0.0
6.9457 -39 0.0
8.8914 -39 0.0
12.3514 -39 0.0
15.8114 -39 0.0
21.9642 -39 0.0
28.1171 -39 0.0
39.0585 -39 0.0
50 -39 0.0
0 -40.5 0.0
1 -40.5 0.0
2 -40.5 0.0
3 -40.5 0.0
4 -40.5 0.0
5 -40.5 0.0
8.8914 -40.5 0.0
15.8114 -40.5 0.0
28.1171 -40.5 0.0
50 -40.5 0.0
0 -42 0.0
0.5 -42 0.0
1 -42 0.0
1.5 -42 0.0
2 -42 0.0
2.5 -42 0.0
3 -42 0.0
3.5 -42 0.0
4 -42 0.0
4.5 -42 0.0
5 -42 0.0
6.9457 -42 0.0
8.8914 -42 0.0
12.3514 -42 0.0
15.8114 -42 0.0
21.9642 -42 0.0
28.1171 -42 0.0
39.0585 -42 0.0
50 -42 0.0
0 -43.5 0.0
1 -43.5 0.0
2 -43.5 0.0
3 -43.5 0.0
4 -43.5 0.0
5 -43.5 0.0
8.8914 -43.5 0.0
15.8114 -43.5 0.0
28.1171 -43.5 0.0
50 -43.5 0.0
0 -45 0.0
0.5 -45 0.0
1 -45 0.0
1.5 -45 0.0
2 -45 0.0
2.5 -45 0.0
3 -45 0.0
3.5 -45 0.0
4 -45 0.0
4.5 -45 0.0
5 -45 0.0
6.9457 -45 0.0
8.8914 -45 0.0
12.3514 -45 0.0
15.8114 -45 0.0
21.9642 -45 0.0
28.1171 -45 0.0
39.0585 -45 0.0
50 -45 0.0
0 -50.5 0.0
1 -50.5 0.0
2 -50.5 0.0
3 -50.5 0.0
4 -50.5 0.0
5 -50.5 0.0
8.8914 -50.5 0.0
15.8114 -50.5 0.0
28.1171 -50.5 0.0
50 -50.5 0.0
0 -56 0.0
0.5 -56 0.0
1 -56 0.0
1.5 -56 0.0
2 -56 0.0
2.5 -56 0.0
3 -56 0.0
3.5 -56 0.0
4 -56 0.0
4.5 -56 0.0
5 -56 0.0
6.9457 -56 0.0
8.8914 -56 0.0
12.3514 -56 0.0
15.8114 -56 0.0
21.9642 -56 0.0
28.1171 -56 0.0
39.0585 -56 0.0
50 -56 0.0
0 -61.5 0.0
1 -61.5 0.0
2 -61.5 0.0
3 -61.5 0.0
4 -61.5 0.0
5 -61.5 0.0
8.8914 -61.5 0.0
15.8114 -61.5 0.0
28.1171 -61.5 0.0
[...]
POINT_DATA 889
SCALARS Displacement_R double 1
LOOKUP_TABLE default
0
-3.27601e-05
-7.19995e-05
-0.000181782
-0.000288464
-0.000385248
-0.000465273
-0.000533682
-0.000589139
-0.000620738
-0.000640889
-0.00062704
-0.000503208
-0.000257557
-6.67247e-05
6.40619e-05
8.98634e-05
4.01158e-05
0
0
-3.35189e-05
-0.000157165
-0.000243179
-0.000282852
-0.000298421
-0.000316547
-2.19371e-05
8.55444e-05
0
0
-7.57819e-06
-1.34964e-05
-3.27812e-05
-4.76644e-05
-5.61657e-05
-6.06041e-05
-5.87248e-05
-4.86219e-05
-3.62607e-05
-4.7752e-05
-0.000130133
-0.000135415
-4.85542e-05
2.57736e-05
8.33412e-05
8.15369e-05
3.63258e-05
0
0
2.05723e-05
5.40225e-05
8.84465e-05
0.000129196
0.000140234
3.35205e-05
7.76912e-05
7.90017e-05
0
0
3.23005e-05
7.02097e-05
0.000108545
0.000143952
0.000180299
0.000215939
0.000249157
0.000275689
0.000293013
0.000298161
0.000251977
0.000196221
0.000152299
0.000130971
0.000104944
7.66275e-05
3.23816e-05
0
0
0.000123991
0.000230435
0.000329885
0.000410817
0.000449087
0.000353923
0.0001839
7.45171e-05
0
0
9.70711e-05
0.000176445
0.000247299
0.000315483
0.000381477
0.000445701
0.000502621
0.000548889
0.000583317
0.000605353
0.000596055
0.000510717
0.000349714
0.000236172
0.000127436
7.24769e-05
2.84736e-05
0
0
0.00021681
0.000399051
0.000575202
0.000709846
0.000784018
0.000670926
0.000284713
6.96111e-05
0
0
9.95899e-05
0.000212068
0.000352031
0.000494065
0.000621052
0.000732195
0.000826832
0.000905684
0.00096568
0.00100406
0.000986983
0.000835571
0.000547004
0.000330458
0.000149155
6.67451e-05
2.47348e-05
0
0
0.000135568
0.000444101
0.000703676
0.000883261
0.000990234
0.000882059
0.000381193
7.22864e-05
0
0
6.95025e-05
0.000171146
0.00031017
0.000452618
0.000575663
0.000684187
0.000780177
0.000858914
0.000921425
0.000969759
0.00101178
0.000912952
0.000655591
0.000425792
0.000191213
7.80221e-05
2.14783e-05
0
0
0.000283576
0.000474635
0.000671488
0.000834859
0.000946952
0.000933023
0.000462308
8.26608e-05
0
0
0.000150199
0.000284129
0.00039395
0.000481426
0.000569178
0.000657012
0.000737625
0.000809902
0.000871181
0.000921047
0.00099645
0.000941521
0.000722957
0.000492673
0.000224217
8.72571e-05
1.86862e-05
0
0
0.000265634
0.000468411
0.000637504
0.000783206
0.000892326
0.000942407
0.000515989
9.05718e-05
0
0
0.000126318
0.000245162
0.000350505
0.000446137
0.00053383
0.000614123
0.000687722
0.000754106
0.000812418
0.000861752
0.000956447
0.000934615
0.000755018
0.000533258
0.000246988
9.36446e-05
1.6193e-05
0
0
0.000226112
0.000422186
0.000586709
0.000723318
0.000828532
0.000921283
0.000544219
9.52719e-05
0
0
0.00010635
0.000209487
0.000306781
0.000397304
0.00048093
0.000557687
0.000627702
0.000690531
0.000746119
0.000794007
0.000899253
0.000901115
0.000756646
0.000549291
0.000258753
9.65009e-05
1.38763e-05
0
0
0.00019475
0.000373146
0.000527717
0.000656512
0.000757266
0.000876492
0.000548556
9.61646e-05
0
0
9.15138e-05
0.000181162
0.00026746
0.000349425
0.000426152
0.00049726
0.000562382
0.000621246
0.000673682
0.000719365
0.000828384
0.00084604
0.00073132
0.000542069
0.000259003
9.53229e-05
1.16523e-05
0
0
0.00016834
0.000326224
0.000466456
0.00058506
0.000679476
0.000811511
0.00053006
9.28458e-05
0
0
7.85335e-05
0.000155901
0.000231106
0.00030319
0.000371414
0.000435214
0.00049409
0.000547697
0.000595807
0.000638165
0.000744754
0.000771478
0.000680992
0.000512366
0.000247418
8.98093e-05
9.47777e-06
0
0
0.00014363
0.000280088
0.000403346
0.000509109
0.000594636
0.000727197
0.000489217
8.51187e-05
0
0
6.60418e-05
0.000131212
0.000194943
0.00025653
0.000315243
0.000370507
0.000421817
0.000468844
0.000511302
0.000548975
0.000647125
0.000677135
0.00060608
0.000460352
0.000223813
7.98706e-05
7.35169e-06
0
0
0.000118318
0.000232167
0.000336295
0.000426572
0.000500364
0.000622153
0.000425874
7.30091e-05
0
0
5.2265e-05
0.000104658
0.000156477
0.000206596
0.000254709
0.000300232
0.00034268
0.000381668
0.000416972
0.000448435
0.000532159
0.000560519
0.000505498
0.000385547
0.000188101
6.56493e-05
5.31493e-06
0
0
9.01789e-05
0.000179269
0.000261873
0.000333549
0.000392326
0.000492761
0.000339247
5.67976e-05
0
0
3.79172e-05
7.40843e-05
0.000111578
0.000149904
0.000186284
0.000220571
0.000252259
0.000281323
0.000307694
0.000331174
0.000394234
0.000416838
0.000376655
0.000286867
0.000140259
4.75662e-05
3.44403e-06
0
0
5.42538e-05
0.000118307
0.000175412
0.000224176
0.000264001
0.00033296
0.000228064
3.71026e-05
0
0
7.22582e-06
3.28288e-05
6.06727e-05
8.35812e-05
0.000105771
0.000125812
0.000144129
0.0001608
0.00017593
0.000189415
0.000225138
0.000238645
0.000215339
0.000162882
8.0234e-05
2.64389e-05
1.8325e-06
0
0
1.09298e-05
4.69337e-05
7.04174e-05
8.98438e-05
0.000105781
0.000133829
9.11852e-05
1.51133e-05
0
0
4.74969e-06
8.14034e-07
3.09435e-06
4.77e-06
6.10218e-06
7.44064e-06
8.57136e-06
9.65455e-06
1.06003e-05
1.14799e-05
1.39956e-05
1.53094e-05
1.51553e-05
1.28151e-05
7.63611e-06
3.82824e-06
5.35544e-07
0
0
3.81762e-06
5.77304e-06
7.41927e-06
9.12367e-06
1.07252e-05
1.47812e-05
1.34883e-05
4.78822e-06
0
0
8.83525e-07
1.97099e-06
3.27701e-06
4.5099e-06
5.58295e-06
6.57637e-06
7.45559e-06
8.29908e-06
9.09445e-06
9.8524e-06
1.23156e-05
1.39849e-05
1.47882e-05
1.36154e-05
9.64757e-06
5.57109e-06
1.59135e-06
0
0
1.39037e-06
3.56438e-06
5.56763e-06
7.33377e-06
8.88389e-06
1.30354e-05
1.35061e-05
6.19833e-06
0
0
8.21879e-07
1.65922e-06
2.44641e-06
3.28029e-06
4.10791e-06
4.92689e-06
5.74557e-06
6.5229e-06
7.27417e-06
7.98016e-06
1.03518e-05
1.20595e-05
1.34222e-05
1.31203e-05
1.02828e-05
6.65719e-06
2.34341e-06
0
0
1.50749e-06
2.9907e-06
4.4765e-06
5.89572e-06
7.21952e-06
1.1088e-05
1.26145e-05
6.9572e-06
0
0
6.90252e-07
1.38357e-06
2.06616e-06
2.73291e-06
3.40306e-06
4.06109e-06
4.70547e-06
5.33833e-06
5.94696e-06
6.53735e-06
8.57671e-06
1.01712e-05
1.17567e-05
1.19882e-05
1.01289e-05
7.12035e-06
2.82755e-06
0
0
1.24184e-06
2.47983e-06
3.67953e-06
4.83301e-06
5.92324e-06
9.30486e-06
1.133e-05
7.17547e-06
0
0
5.66103e-07
1.12766e-06
1.6865e-06
2.24229e-06
2.79013e-06
3.32992e-06
3.85941e-06
4.37579e-06
4.87928e-06
5.36689e-06
7.09517e-06
8.50874e-06
1.01059e-05
1.06361e-05
9.52535e-06
7.12891e-06
3.08058e-06
0
0
1.02113e-06
2.02829e-06
3.01316e-06
3.96257e-06
4.86551e-06
7.76871e-06
9.94993e-06
7.01719e-06
0
0
4.61607e-07
9.22906e-07
1.38126e-06
1.83524e-06
2.28447e-06
2.7272e-06
3.16232e-06
3.58905e-06
4.0055e-06
4.41127e-06
5.86705e-06
7.09429e-06
8.59953e-06
9.27169e-06
8.69401e-06
6.83538e-06
3.14869e-06
0
0
8.34821e-07
1.6613e-06
2.46996e-06
3.25274e-06
4.00189e-06
6.47293e-06
8.61778e-06
6.61945e-06
0
0
3.78666e-07
7.55965e-07
1.13156e-06
1.50442e-06
1.87345e-06
2.23791e-06
2.59684e-06
2.94933e-06
3.29459e-06
3.63186e-06
4.85431e-06
5.90783e-06
7.27548e-06
7.99215e-06
7.77468e-06
6.35908e-06
3.07941e-06
0
0
6.85102e-07
1.36364e-06
2.02939e-06
2.67612e-06
3.29804e-06
5.39006e-06
7.39681e-06
6.08542e-06
0
0
3.10887e-07
6.2115e-07
9.30012e-07
1.23674e-06
1.54073e-06
1.84127e-06
2.13774e-06
2.42952e-06
2.71599e-06
2.99649e-06
4.02103e-06
4.91906e-06
6.13363e-06
6.83751e-06
6.8516e-06
5.78683e-06
2.9159e-06
0
0
5.63699e-07
1.12262e-06
1.67197e-06
2.20717e-06
2.72386e-06
4.48872e-06
6.30945e-06
5.48809e-06
0
0
2.56216e-07
5.11854e-07
7.66468e-07
1.01954e-06
1.27054e-06
1.519e-06
1.76437e-06
2.00621e-06
2.24391e-06
2.47747e-06
3.33517e-06
4.09685e-06
5.15914e-06
5.81866e-06
5.97259e-06
5.17857e-06
2.6942e-06
0
0
4.65053e-07
9.26516e-07
1.38078e-06
1.82443e-06
2.25413e-06
3.73937e-06
5.35792e-06
4.87659e-06
0
0
2.11591e-07
4.22743e-07
6.33143e-07
8.42277e-07
1.04998e-06
1.25565e-06
1.45903e-06
1.6597e-06
1.85798e-06
2.05181e-06
2.76979e-06
3.41348e-06
4.33223e-06
4.93249e-06
5.16231e-06
4.57358e-06
2.44259e-06
0
0
3.84801e-07
7.66638e-07
1.14263e-06
1.51063e-06
1.86792e-06
3.11652e-06
4.53397e-06
4.28136e-06
0
0
1.75123e-07
3.49964e-07
5.24238e-07
6.97714e-07
8.69768e-07
1.04054e-06
1.20823e-06
1.37419e-06
1.53668e-06
1.70053e-06
2.30218e-06
2.84603e-06
3.63326e-06
4.16733e-06
4.43233e-06
3.99441e-06
2.18253e-06
0
0
2.49501e-07
4.97461e-07
7.42618e-07
9.84589e-07
1.21951e-06
2.04766e-06
3.04897e-06
3.0684e-06
0
0
9.04149e-08
1.80659e-07
2.69785e-07
3.58405e-07
4.44738e-07
5.30173e-07
6.11679e-07
6.91786e-07
7.82765e-07
8.63403e-07
1.17543e-06
1.47085e-06
1.88911e-06
2.20994e-06
2.43429e-06
2.29343e-06
1.31434e-06
0
0
1.25687e-07
2.52157e-07
3.79936e-07
5.09399e-07
6.20005e-07
1.02172e-06
1.58021e-06
1.69864e-06
0
0
-1.34075e-09
-2.6873e-09
-5.69391e-09
-8.6581e-09
-1.45067e-08
-2.02064e-08
-2.93945e-08
-3.81916e-08
0
6.92113e-08
3.62075e-07
6.23561e-07
9.08237e-07
1.12084e-06
1.28504e-06
1.24448e-06
7.27136e-07
0
0
6.3419e-08
1.28759e-07
1.97368e-07
2.69903e-07
3.16908e-07
4.9649e-07
8.0461e-07
9.06812e-07
0
1.40327e-10
8.73185e-10
1.63139e-09
6.68216e-10
-4.31087e-10
-4.67424e-09
-9.18711e-09
-1.80067e-08
-2.72963e-08
0
3.33273e-08
1.88345e-07
3.34337e-07
4.70519e-07
5.82092e-07
6.7327e-07
6.60018e-07
3.89984e-07
0
0
3.32639e-08
6.75557e-08
1.03754e-07
1.42906e-07
1.68314e-07
2.60923e-07
4.18439e-07
4.74111e-07
0
4.12474e-11
4.68346e-10
8.85693e-10
6.15774e-10
3.08646e-10
-1.41976e-09
-3.18815e-09
-7.39291e-09
-1.16077e-08
0
1.76741e-08
9.50623e-08
1.64924e-07
2.34099e-07
2.86203e-07
3.31269e-07
3.23773e-07
1.92465e-07
0
0
1.32211e-08
2.65239e-08
4.01402e-08
5.47935e-08
6.53338e-08
1.02511e-07
1.60035e-07
1.79709e-07
0
0
0
0
0
0
0
0
0
0
0
0
0
0
0
0
0
0
0
0
SCALARS Displacement_Z double 1
LOOKUP_TABLE default
-0.00611251
-0.00610208
-0.00605918
-0.00593928
-0.00580333
-0.0056333
-0.00541964
-0.0051626
-0.00485458
-0.00448407
-0.00399569
-0.00264493
-0.0017328
-0.0007019
-0.00019092
8.68655e-05
7.82123e-05
1.65794e-05
-6.29462e-06
-0.00611605
-0.00608866
-0.00587078
-0.00546595
-0.00487832
-0.0040338
-0.00172324
-0.000179469
7.75878e-05
-7.55459e-06
-0.00612427
-0.00610911
-0.00608688
-0.00600955
-0.00587217
-0.00568829
-0.00545655
-0.00517869
-0.00485376
-0.00447395
-0.00405578
-0.00269027
-0.00171904
-0.000675856
-0.000171036
9.64357e-05
7.6939e-05
1.41566e-05
-8.71723e-06
-0.00608777
-0.00604636
-0.00582862
-0.00540896
-0.00479931
-0.00405247
-0.00171423
-0.000164881
7.61474e-05
-9.86601e-06
-0.00602197
-0.00600855
-0.00596814
-0.00588612
-0.00574985
-0.00556346
-0.00533018
-0.0050513
-0.0047332
-0.00438723
-0.00402518
-0.0027025
-0.00171112
-0.000665739
-0.000161842
9.98705e-05
7.5292e-05
1.1943e-05
-1.09087e-05
-0.00590917
-0.00585454
-0.00564421
-0.00522948
-0.00465132
-0.0039788
-0.00170695
-0.000160802
7.43834e-05
-1.18418e-05
-0.00573007
-0.00573187
-0.00570937
-0.0056409
-0.00551355
-0.00533184
-0.00510669
-0.00484515
-0.00455286
-0.00423846
-0.00391139
-0.00266548
-0.00170296
-0.000667214
-0.000162929
9.68709e-05
7.34102e-05
9.80387e-06
-1.26716e-05
-0.00552169
-0.00553113
-0.00535342
-0.00495841
-0.00443303
-0.00382803
-0.00169741
-0.000167042
7.22717e-05
-1.34448e-05
-0.00532332
-0.00530612
-0.00532318
-0.00527742
-0.00514759
-0.00498133
-0.00477705
-0.00454271
-0.00428364
-0.00400782
-0.00372632
-0.00258649
-0.00169402
-0.000681082
-0.000174142
8.7822e-05
7.10753e-05
7.79496e-06
-1.41153e-05
-0.00515599
-0.00511337
-0.0047819
-0.00443849
-0.00399757
-0.00350229
-0.00164076
-0.000175132
6.81734e-05
-1.49106e-05
-0.00503808
-0.00502546
-0.0049096
-0.00458327
-0.00443091
-0.00427805
-0.00411335
-0.00392705
-0.00372191
-0.00350412
-0.00327672
-0.00235082
-0.00158016
-0.000660636
-0.000176698
7.48955e-05
6.47355e-05
6.14118e-06
-1.54676e-05
-0.00466573
-0.00448946
-0.004099
-0.00380636
-0.00345641
-0.00305884
-0.00151536
-0.000177821
6.09965e-05
-1.58818e-05
-0.00422769
-0.00418794
-0.0040774
-0.00393288
-0.00378571
-0.00365556
-0.00351641
-0.0033646
-0.00320136
-0.0030264
-0.00284363
-0.00209552
-0.00144462
-0.000627278
-0.000178931
5.9471e-05
5.67877e-05
4.02887e-06
-1.60871e-05
-0.00381532
-0.00371256
-0.00348778
-0.00323908
-0.00295544
-0.00263619
-0.0013708
-0.000179284
5.23379e-05
-1.61929e-05
-0.00345
-0.00342771
-0.00337178
-0.00329089
-0.00319492
-0.00308853
-0.00297426
-0.00285121
-0.00271934
-0.00257944
-0.00243316
-0.00183256
-0.00129271
-0.000582491
-0.000179194
4.2751e-05
4.75107e-05
1.56423e-06
-1.61251e-05
-0.00311191
-0.00305555
-0.00291189
-0.00271929
-0.00249181
-0.00223721
-0.00121291
-0.000178216
4.25248e-05
-1.59886e-05
-0.0028043
-0.0027921
-0.00275922
-0.00270756
-0.00264077
-0.00256229
-0.00247397
-0.0023772
-0.00227296
-0.00216225
-0.00204646
-0.00156974
-0.0011304
-0.000528334
-0.000176521
2.57381e-05
3.72776e-05
-1.12947e-06
-1.57196e-05
-0.0025174
-0.0024814
-0.00238283
-0.0022387
-0.00206201
-0.00186233
-0.00104748
-0.00017392
3.19628e-05
-1.54065e-05
-0.00224997
-0.00224228
-0.00222025
-0.00218472
-0.00213737
-0.00207971
-0.00201331
-0.00193944
-0.00185924
-0.00177363
-0.00168386
-0.00131242
-0.000963249
-0.000467162
-0.000170444
9.27962e-06
2.65196e-05
-3.9124e-06
-1.50063e-05
-0.00199878
-0.00197419
-0.00190429
-0.00179797
-0.00166441
-0.0015119
-0.000879712
-0.000166122
2.11031e-05
-1.45835e-05
-0.00176299
-0.00175769
-0.00174229
-0.00171716
-0.00168324
-0.00164134
-0.00159251
-0.00153769
-0.00147778
-0.00141358
-0.00134605
-0.00106476
-0.000796113
-0.000401399
-0.000160837
-5.88001e-06
1.57017e-05
-6.63243e-06
-1.41219e-05
-0.00154101
-0.00152366
-0.00147387
-0.00139701
-0.00129931
-0.0011869
-0.000714159
-0.000154806
1.04219e-05
-1.36583e-05
-0.00133255
-0.00132887
-0.001318
-0.00130014
-0.00127602
-0.00124624
-0.00121143
-0.00117222
-0.00112926
-0.00108311
-0.00103444
-0.000830457
-0.000633256
-0.000333389
-0.000147749
-1.90433e-05
5.30516e-06
-9.13093e-06
-1.32059e-05
-0.00113739
-0.00112488
-0.00108959
-0.00103588
-0.000967755
-0.000889181
-0.000554847
-0.000140048
4.03778e-07
-1.27723e-05
-0.000956348
-0.000952847
-0.000944373
-0.000931596
-0.000914693
-0.00089415
-0.000870535
-0.000844079
-0.000815199
-0.000784179
-0.000751405
-0.000613205
-0.000478509
-0.000265305
-0.000131241
-2.94982e-05
-4.18677e-06
-1.12497e-05
-1.24009e-05
-0.000787422
-0.000777205
-0.000751393
-0.000715631
-0.000671941
-0.000621645
-0.000405452
-0.000121863
-8.47013e-06
-1.20673e-05
-0.000632267
-0.00063162
-0.000624458
-0.000612573
-0.000599724
-0.000586545
-0.000571829
-0.000555914
-0.000538617
-0.000520124
-0.000500541
-0.00041707
-0.000335406
-0.000199053
-0.00011124
-3.64534e-05
-1.22993e-05
-1.28404e-05
-1.1848e-05
-0.000504326
-0.000485972
-0.000460829
-0.000439809
-0.000415948
-0.00038868
-0.000269419
-0.00010007
-1.57268e-05
-1.16767e-05
-0.000413147
-0.000384302
-0.000358962
-0.000343977
-0.000335643
-0.000327711
-0.000320572
-0.000312976
-0.000304882
-0.000296222
-0.000287175
-0.000246923
-0.000207308
-0.000136135
-8.74165e-05
-3.89767e-05
-1.85651e-05
-1.37799e-05
-1.16725e-05
-0.000329003
-0.00024134
-0.000223652
-0.000215468
-0.000206628
-0.000196496
-0.000150221
-7.41965e-05
-2.08762e-05
-1.16928e-05
-0.000274556
-0.000241187
-0.000137325
-0.000132334
-0.000129437
-0.000127724
-0.000126143
-0.000124425
-0.000122592
-0.000120608
-0.000118477
-0.000108801
-9.7817e-05
-7.72965e-05
-5.91089e-05
-3.59605e-05
-2.24765e-05
-1.40052e-05
-1.19333e-05
-0.00013287
-0.000119758
-0.000117584
-0.000115052
-0.000112189
-0.0001088
-9.14973e-05
-5.75578e-05
-2.28141e-05
-1.19168e-05
-0.000101315
-0.000102106
-0.000105113
-0.000106623
-0.000106614
-0.000106055
-0.000105187
-0.000104116
-0.000102892
-0.00010154
-0.000100063
-9.33426e-05
-8.54481e-05
-7.01507e-05
-5.57626e-05
-3.56693e-05
-2.31044e-05
-1.42657e-05
-1.19568e-05
-9.69874e-05
-9.6883e-05
-9.71282e-05
-9.61981e-05
-9.4442e-05
-9.2135e-05
-7.98215e-05
-5.38533e-05
-2.33111e-05
-1.20102e-05
-8.93318e-05
-8.9794e-05
-8.97098e-05
-8.93895e-05
-8.92209e-05
-8.88094e-05
-8.82695e-05
-8.76206e-05
-8.68403e-05
-8.59549e-05
-8.49652e-05
-8.02406e-05
-7.45404e-05
-6.31255e-05
-5.18079e-05
-3.48323e-05
-2.34459e-05
-1.45522e-05
-1.21103e-05
-8.2695e-05
-8.26885e-05
-8.21778e-05
-8.13139e-05
-8.00824e-05
-7.84936e-05
-6.96612e-05
-4.97719e-05
-2.34962e-05
-1.22045e-05
-7.65447e-05
-7.64097e-05
-7.63079e-05
-7.61472e-05
-7.58534e-05
-7.55148e-05
-7.51002e-05
-7.46024e-05
-7.4035e-05
-7.33909e-05
-7.26781e-05
-6.92871e-05
-6.51311e-05
-5.65469e-05
-4.76813e-05
-3.35574e-05
-2.34706e-05
-1.48176e-05
-1.23294e-05
-7.07314e-05
-7.05677e-05
-7.01755e-05
-6.95125e-05
-6.85922e-05
-6.74262e-05
-6.09493e-05
-4.56529e-05
-2.33728e-05
-1.24432e-05
-6.54947e-05
-6.54863e-05
-6.53958e-05
-6.5245e-05
-6.50491e-05
-6.47895e-05
-6.4475e-05
-6.41047e-05
-6.36804e-05
-6.32046e-05
-6.26784e-05
-6.01799e-05
-5.70903e-05
-5.05773e-05
-4.36256e-05
-3.19861e-05
-2.3206e-05
-1.50199e-05
-1.2571e-05
-6.08088e-05
-6.07163e-05
-6.04149e-05
-5.99189e-05
-5.92336e-05
-5.83672e-05
-5.35275e-05
-4.16854e-05
-2.29818e-05
-1.26836e-05
-5.65709e-05
-5.65443e-05
-5.648e-05
-5.63727e-05
-5.62202e-05
-5.60266e-05
-5.57911e-05
-5.55143e-05
-5.51977e-05
-5.48417e-05
-5.44481e-05
-5.2576e-05
-5.02438e-05
-4.52519e-05
-3.97808e-05
-3.02439e-05
-2.27001e-05
-1.51333e-05
-1.27957e-05
-5.27156e-05
-5.26383e-05
-5.24132e-05
-5.20407e-05
-5.15254e-05
-5.08738e-05
-4.72068e-05
-3.79714e-05
-2.23758e-05
-1.28894e-05
-4.92106e-05
-4.9195e-05
-4.91456e-05
-4.90634e-05
-4.89496e-05
-4.88031e-05
-4.86253e-05
-4.84161e-05
-4.81766e-05
-4.79072e-05
-4.76089e-05
-4.61875e-05
-4.44048e-05
-4.05418e-05
-3.6216e-05
-2.84265e-05
-2.20064e-05
-1.51454e-05
-1.29712e-05
-4.60175e-05
-4.59608e-05
-4.57896e-05
-4.55066e-05
-4.51149e-05
-4.46187e-05
-4.18072e-05
-3.4554e-05
-2.16075e-05
-1.30322e-05
-4.31002e-05
-4.30874e-05
-4.305e-05
-4.29875e-05
-4.29003e-05
-4.27885e-05
-4.26526e-05
-4.24927e-05
-4.23095e-05
-4.21032e-05
-4.18746e-05
-4.07827e-05
-3.94053e-05
-3.639e-05
-3.29538e-05
-2.66011e-05
-2.11749e-05
-1.50526e-05
-1.30736e-05
-4.04264e-05
-4.03824e-05
-4.02511e-05
-4.00338e-05
-3.97325e-05
-3.93505e-05
-3.71726e-05
-3.14401e-05
-2.07235e-05
-1.30929e-05
-3.79705e-05
-3.79608e-05
-3.79319e-05
-3.78837e-05
-3.78165e-05
-3.77302e-05
-3.76253e-05
-3.75018e-05
-3.73603e-05
-3.72006e-05
-3.70235e-05
-3.61763e-05
-3.5102e-05
-3.27307e-05
-2.99895e-05
-2.48109e-05
-2.02478e-05
-1.48577e-05
-1.30879e-05
-3.57088e-05
-3.56748e-05
-3.5573e-05
-3.54045e-05
-3.51707e-05
-3.48735e-05
-3.3172e-05
-2.86162e-05
-1.97613e-05
-1.30606e-05
-3.36212e-05
-3.36135e-05
-3.35911e-05
-3.35535e-05
-3.35012e-05
-3.3434e-05
-3.33522e-05
-3.32559e-05
-3.31453e-05
-3.30209e-05
-3.28826e-05
-3.22198e-05
-3.13759e-05
-2.94982e-05
-2.73034e-05
-2.30821e-05
-1.92579e-05
-1.45671e-05
-1.30067e-05
-3.1688e-05
-3.16617e-05
-3.15828e-05
-3.14511e-05
-3.12675e-05
-3.10356e-05
-2.96974e-05
-2.6058e-05
-1.87492e-05
-1.29314e-05
-2.9894e-05
-2.98885e-05
-2.9871e-05
-2.98423e-05
-2.98017e-05
-2.975e-05
-2.96869e-05
-2.9611e-05
-2.95242e-05
-2.94255e-05
-2.93164e-05
-2.87917e-05
-2.81296e-05
-2.66317e-05
-2.48686e-05
-2.14289e-05
-1.82291e-05
-1.41888e-05
-1.28292e-05
-2.42936e-05
-2.42776e-05
-2.42303e-05
-2.41525e-05
-2.40471e-05
-2.39124e-05
-2.31335e-05
-2.09706e-05
-1.6338e-05
-1.22876e-05
-1.98483e-05
-1.98459e-05
-1.98402e-05
-1.98296e-05
-1.98157e-05
-1.97951e-05
-1.97711e-05
-1.97349e-05
-1.96952e-05
-1.96476e-05
-1.95953e-05
-1.93856e-05
-1.91024e-05
-1.84469e-05
-1.76443e-05
-1.60146e-05
-1.43964e-05
-1.21936e-05
-1.14272e-05
-1.60811e-05
-1.60783e-05
-1.60696e-05
-1.60588e-05
-1.60541e-05
-1.605e-05
-1.57599e-05
-1.47632e-05
-1.25198e-05
-1.03927e-05
-1.31978e-05
-1.31969e-05
-1.31945e-05
-1.319e-05
-1.3184e-05
-1.3175e-05
-1.31645e-05
-1.3148e-05
-1.31301e-05
-1.31084e-05
-1.30846e-05
-1.29919e-05
-1.28646e-05
-1.25683e-05
-1.22018e-05
-1.14338e-05
-1.06488e-05
-9.538e-06
-9.14951e-06
-1.06371e-05
-1.06318e-05
-1.06165e-05
-1.05898e-05
-1.05492e-05
-1.04963e-05
-1.03135e-05
-9.86682e-06
-8.83102e-06
-7.8051e-06
-8.18461e-06
-8.18388e-06
-8.18112e-06
-8.17711e-06
-8.1711e-06
-8.16523e-06
-8.15741e-06
-8.1534e-06
-8.14759e-06
-8.14275e-06
-8.13712e-06
-8.07766e-06
-8.01472e-06
-7.87235e-06
-7.70934e-06
-7.37094e-06
-7.02389e-06
-6.52027e-06
-6.34496e-06
-6.0045e-06
-6.00302e-06
-5.99738e-06
-5.98641e-06
-5.96568e-06
-5.93893e-06
-5.85448e-06
-5.66455e-06
-5.25002e-06
-4.83301e-06
-3.88582e-06
-3.88491e-06
-3.88327e-06
-3.88051e-06
-3.877e-06