# vtk DataFile Version 2.0
./vtk
ASCII

DATASET UNSTRUCTURED_GRID
POINTS 8069 double
0 0 0.0
0.0333 0 0.0
0.0667 0 0.0
0.1 0 0.0
0.1333 0 0.0
0.1667 0 0.0
0.2 0 0.0
0.2333 0 0.0
0.2667 0 0.0
0.3 0 0.0
0.3333 0 0.0
0.3667 0 0.0
0.4 0 0.0
0.4333 0 0.0
0.4667 0 0.0
0.5 0 0.0
0.5333 0 0.0
0.5667 0 0.0
0.6 0 0.0
0.6333 0 0.0
0.6667 0 0.0
0.7 0 0.0
0.7333 0 0.0
0.7667 0 0.0
0.8 0 0.0
0.8333 0 0.0
0.8667 0 0.0
0.9 0 0.0
0.9333 0 0.0
0.9667 0 0.0
1 0 0.0
1.0894 0 0.0
1.1788 0 0.0
1.2841 0 0.0
1.3895 0 0.0
1.5137 0 0.0
1.6379 0 0.0
1.7843 0 0.0
1.9307 0 0.0
2.1033 0 0.0
2.2758 0 0.0
2.4793 0 0.0
2.6827 0 0.0
2.9225 0 0.0
3.1623 0 0.0
3.4449 0 0.0
3.7276 0 0.0
4.0608 0 0.0
4.394 0 0.0
4.7867 0 0.0
5.1795 0 0.0
5.6424 0 0.0
6.1054 0 0.0
6.6511 0 0.0
7.1969 0 0.0
7.8401 0 0.0
8.4834 0 0.0
9.2417 0 0.0
10 0 0.0
0 -0.0444 0.0
0.0667 -0.0444 0.0
0.1333 -0.0444 0.0
0.2 -0.0444 0.0
0.2667 -0.0444 0.0
0.3333 -0.0444 0.0
0.4 -0.0444 0.0
0.4667 -0.0444 0.0
0.5333 -0.0444 0.0
0.6 -0.0444 0.0
0.6667 -0.0444 0.0
0.7333 -0.0444 0.0
0.8 -0.0444 0.0
0.8667 -0.0444 0.0
0.9333 -0.0444 0.0
1 -0.0444 0.0
1.1788 -0.0444 0.0
1.3895 -0.0444 0.0
1.6379 -0.0444 0.0
1.9307 -0.0444 0.0
2.2758 -0.0444 0.0
2.6827 -0.0444 0.0
3.1623 -0.0444 0.0
3.7276 -0.0444 0.0
4.394 -0.0444 0.0
5.1795 -0.0444 0.0
6.1054 -0.0444 0.0
7.1969 -0.0444 0.0
8.4834 -0.0444 0.0
10 -0.0444 0.0
0 -0.0889 0.0
0.0333 -0.0889 0.0
0.0667 -0.0889 0.0
0.1 -0.0889 0.0
0.1333 -0.0889 0.0
0.1667 -0.0889 0.0
0.2 -0.0889 0.0
0.2333 -0.0889 0.0
0.2667 -0.0889 0.0
0.3 -0.0889 0.0
0.3333 -0.0889 0.0
0.3667 -0.0889 0.0
0.4 -0.0889 0.0
0.4333 -0.0889 0.0
0.4667 -0.0889 0.0
0.5 -0.0889 0.0
0.5333 -0.0889 0.0
0.5667 -0.0889 0.0
0.6 -0.0889 0.0
0.6333 -0.0889 0.0
0.6667 -0.0889 0.0
0.7 -0.0889 0.0
0.7333 -0.0889 0.0
0.7667 -0.0889 0.0
0.8 -0.0889 0.0
0.8333 -0.0889 0.0
0.8667 -0.0889 0.0
0.9 -0.0889 0.0
0.9333 -0.0889 0.0
0.9667 -0.0889 0.0
1 -0.0889 0.0
1.0894 -0.0889 0.0
1.1788 -0.0889 0.0
1.2841 -0.0889 0.0
1.3895 -0.0889 0.0
1.5137 -0.0889 0.0
1.6379 -0.0889 0.0
1.7843 -0.0889 0.0
1.9307 -0.0889 0.0
2.1033 -0.0889 0.0
2.2758 -0.0889 0.0
2.4793 -0.0889 0.0
2.6827 -0.0889 0.0
2.9225 -0.0889 0.0
3.1623 -0.0889 0.0
3.4449 -0.0889 0.0
3.7276 -0.0889 0.0
4.0608 -0.0889 0.0
4.394 -0.0889 0.0
4.7867 -0.0889 0.0
5.1795 -0.0889 0.0
5.6424 -0.0889 0.0
6.1054 -0.0889 0.0
6.6511 -0.0889 0.0
7.1969 -0.0889 0.0
7.8401 -0.0889 0.0
8.4834 -0.0889 0.0
9.2417 -0.0889 0.0
10 -0.0889 0.0
0 -0.1333 0.0
0.0667 -0.1333 0.0
0.1333 -0.1333 0.0
0.2 -0.1333 0.0
0.2667 -0.1333 0.0
0.3333 -0.1333 0.0
0.4 -0.1333 0.0
0.4667 -0.1333 0.0
0.5333 -0.1333 0.0
0.6 -0.1333 0.0
0.6667 -0.1333 0.0
0.7333 -0.1333 0.0
0.8 -0.1333 0.0
0.8667 -0.1333 0.0
0.9333 -0.1333 0.0
1 -0.1333 0.0
1.1788 -0.1333 0.0
1.3895 -0.1333 0.0
1.6379 -0.1333 0.0
1.9307 -0.1333 0.0
2.2758 -0.1333 0.0
2.6827 -0.1333 0.0
3.1623 -0.1333 0.0
3.7276 -0.1333 0.0
4.394 -0.1333 0.0
5.1795 -0.1333 0.0
6.1054 -0.1333 0.0
7.1969 -0.1333 0.0
8.4834 -0.1333 0.0
10 -0.1333 0.0
0 -0.1778 0.0
0.0333 -0.1778 0.0
0.0667 -0.1778 0.0
0.1 -0.1778 0.0
0.1333 -0.1778 0.0
0.1667 -0.1778 0.0
0.2 -0.1778 0.0
0.2333 -0.1778 0.0
0.2667 -0.1778 0.0
0.3 -0.1778 0.0
0.3333 -0.1778 0.0
0.3667 -0.1778 0.0
0.4 -0.1778 0.0
0.4333 -0.1778 0.0
0.4667 -0.1778 0.0
0.5 -0.1778 0.0
0.5333 -0.1778 0.0
0.5667 -0.1778 0.0
0.6 -0.1778 0.0
0.6333 -0.1778 0.0
0.6667 -0.1778 0.0
0.7 -0.1778 0.0
0.7333 -0.1778 0.0
0.7667 -0.1778 0.0
0.8 -0.1778 0.0
0.8333 -0.1778 0.0
0.8667 -0.1778 0.0
0.9 -0.1778 0.0
0.9333 -0.1778 0.0
0.9667 -0.1778 0.0
1 -0.1778 0.0
1.0894 -0.1778 0.0
1.1788 -0.1778 0.0
1.2841 -0.1778 0.0
1.3895 -0.1778 0.0
1.5137 -0.1778 0.0
1.6379 -0.1778 0.0
1.7843 -0.1778 0.0
1.9307 -0.1778 0.0
2.1033 -0.1778 0.0
2.2758 -0.1778 0.0
2.4793 -0.1778 0.0
2.6827 -0.1778 0.0
2.9225 -0.1778 0.0
3.1623 -0.1778 0.0
3.4449 -0.1778 0.0
3.7276 -0.1778 0.0
4.0608 -0.1778 0.0
4.394 -0.1778 0.0
4.7867 -0.1778 0.0
5.1795 -0.1778 0.0
5.6424 -0.1778 0.0
6.1054 -0.1778 0.0
6.6511 -0.1778 0.0
7.1969 -0.1778 0.0
7.8401 -0.1778 0.0
8.4834 -0.1778 0.0
9.2417 -0.1778 0.0
10 -0.1778 0.0
0 -0.2222 0.0
0.0667 -0.2222 0.0
0.1333 -0.2222 0.0
0.2 -0.2222 0.0
0.2667 -0.2222 0.0
0.3333 -0.2222 0.0
0.4 -0.2222 0.0
0.4667 -0.2222 0.0
0.5333 -0.2222 0.0
0.6 -0.2222 0.0
0.6667 -0.2222 0.0
0.7333 -0.2222 0.0
0.8 -0.2222 0.0
0.8667 -0.2222 0.0
0.9333 -0.2222 0.0
1 -0.2222 0.0
1.1788 -0.2222 0.0
1.3895 -0.2222 0.0
1.6379 -0.2222 0.0
1.9307 -0.2222 0.0
2.2758 -0.2222 0.0
2.6827 -0.2222 0.0
3.1623 -0.2222 0.0
3.7276 -0.2222 0.0
4.394 -0.2222 0.0
5.1795 -0.2222 0.0
6.1054 -0.2222 0.0
7.1969 -0.2222 0.0
8.4834 -0.2222 0.0
10 -0.2222 0.0
0 -0.2667 0.0
0.0333 -0.2667 0.0
0.0667 -0.2667 0.0
0.1 -0.2667 0.0
0.1333 -0.2667 0.0
0.1667 -0.2667 0.0
0.2 -0.2667 0.0
0.2333 -0.2667 0.0
0.2667 -0.2667 0.0
0.3 -0.2667 0.0
0.3333 -0.2667 0.0
0.3667 -0.2667 0.0
0.4 -0.2667 0.0
0.4333 -0.2667 0.0
0.4667 -0.2667 0.0
0.5 -0.2667 0.0
0.5333 -0.2667 0.0
0.5667 -0.2667 0.0
0.6 -0.2667 0.0
0.6333 -0.2667 0.0
0.6667 -0.2667 0.0
0.7 -0.2667 0.0
0.7333 -0.2667 0.0
0.7667 -0.2667 0.0
0.8 -0.2667 0.0
0.8333 -0.2667 0.0
0.8667 -0.2667 0.0
0.9 -0.2667 0.0
0.9333 -0.2667 0.0
0.9667 -0.2667 0.0
1 -0.2667 0.0
1.0894 -0.2667 0.0
1.1788 -0.2667 0.0
1.2841 -0.2667 0.0
1.3895 -0.2667 0.0
1.5137 -0.2667 0.0
1.6379 -0.2667 0.0
1.7843 -0.2667 0.0
1.9307 -0.2667 0.0
2.1033 -0.2667 0.0
2.2758 -0.2667 0.0
2.4793 -0.2667 0.0
2.6827 -0.2667 0.0
2.9225 -0.2667 0.0
3.1623 -0.2667 0.0
3.4449 -0.2667 0.0
3.7276 -0.2667 0.0
4.0608 -0.2667 0.0
4.394 -0.2667 0.0
4.7867 -0.2667 0.0
5.1795 -0.2667 0.0
5.6424 -0.2667 0.0
6.1054 -0.2667 0.0
6.6511 -0.2667 0.0
7.1969 -0.2667 0.0
7.8401 -0.2667 0.0
8.4834 -0.2667 0.0
9.2417 -0.2667 0.0
10 -0.2667 0.0
0 -0.3111 0.0
0.0667 -0.3111 0.0
0.1333 -0.3111 0.0
0.2 -0.3111 0.0
0.2667 -0.3111 0.0
0.3333 -0.3111 0.0
0.4 -0.3111 0.0
0.4667 -0.3111 0.0
0.5333 -0.3111 0.0
0.6 -0.3111 0.0
0.6667 -0.3111 0.0
0.7333 -0.3111 0.0
0.8 -0.3111 0.0
0.8667 -0.3111 0.0
0.9333 -0.3111 0.0
1 -0.3111 0.0
1.1788 -0.3111 0.0
1.3895 -0.3111 0.0
1.6379 -0.3111 0.0
1.9307 -0.3111 0.0
2.2758 -0.3111 0.0
2.6827 -0.3111 0.0
3.1623 -0.3111 0.0
3.7276 -0.3111 0.0
4.394 -0.3111 0.0
5.1795 -0.3111 0.0
6.1054 -0.3111 0.0
7.1969 -0.3111 0.0
8.4834 -0.3111 0.0
10 -0.3111 0.0
0 -0.3556 0.0
0.0333 -0.3556 0.0
0.0667 -0.3556 0.0
0.1 -0.3556 0.0
0.1333 -0.3556 0.0
0.1667 -0.3556 0.0
0.2 -0.3556 0.0
0.2333 -0.3556 0.0
0.2667 -0.3556 0.0
0.3 -0.3556 0.0
0.3333 -0.3556 0.0
0.3667 -0.3556 0.0
0.4 -0.3556 0.0
0.4333 -0.3556 0.0
0.4667 -0.3556 0.0
0.5 -0.3556 0.0
0.5333 -0.3556 0.0
0.5667 -0.3556 0.0
0.6 -0.3556 0.0
0.6333 -0.3556 0.0
0.6667 -0.3556 0.0
0.7 -0.3556 0.0
0.7333 -0.3556 0.0
0.7667 -0.3556 0.0
0.8 -0.3556 0.0
0.8333 -0.3556 0.0
0.8667 -0.3556 0.0
0.9 -0.3556 0.0
0.9333 -0.3556 0.0
0.9667 -0.3556 0.0
1 -0.3556 0.0
1.0894 -0.3556 0.0
1.1788 -0.3556 0.0
1.2841 -0.3556 0.0
1.3895 -0.3556 0.0
1.5137 -0.3556 0.0
1.6379 -0.3556 0.0
1.7843 -0.3556 0.0
1.9307 -0.3556 0.0
2.1033 -0.3556 0.0
2.2758 -0.3556 0.0
2.4793 -0.3556 0.0
2.6827 -0.3556 0.0
2.9225 -0.3556 0.0
3.1623 -0.3556 0.0
3.4449 -0.3556 0.0
3.7276 -0.3556 0.0
4.0608 -0.3556 0.0
4.394 -0.3556 0.0
4.7867 -0.3556 0.0
5.1795 -0.3556 0.0
5.6424 -0.3556 0.0
6.1054 -0.3556 0.0
6.6511 -0.3556 0.0
7.1969 -0.3556 0.0
7.8401 -0.3556 0.0
8.4834 -0.3556 0.0
9.2417 -0.3556 0.0
10 -0.3556 0.0
0 -0.4 0.0
0.0667 -0.4 0.0
0.1333 -0.4 0.0
0.2 -0.4 0.0
0.2667 -0.4 0.0
0.3333 -0.4 0.0
0.4 -0.4 0.0
0.4667 -0.4 0.0
0.5333 -0.4 0.0
0.6 -0.4 0.0
0.6667 -0.4 0.0
0.7333 -0.4 0.0
0.8 -0.4 0.0
0.8667 -0.4 0.0
0.9333 -0.4 0.0
1 -0.4 0.0
1.1788 -0.4 0.0
1.3895 -0.4 0.0
1.6379 -0.4 0.0
1.9307 -0.4 0.0
2.2758 -0.4 0.0
2.6827 -0.4 0.0
3.1623 -0.4 0.0
3.7276 -0.4 0.0
4.394 -0.4 0.0
5.1795 -0.4 0.0
6.1054 -0.4 0.0
7.1969 -0.4 0.0
8.4834 -0.4 0.0
10 -0.4 0.0
0 -0.4444 0.0
0.0333 -0.4444 0.0
0.0667 -0.4444 0.0
0.1 -0.4444 0.0
0.1333 -0.4444 0.0
0.1667 -0.4444 0.0
0.2 -0.4444 0.0
0.2333 -0.4444 0.0
0.2667 -0.4444 0.0
0.3 -0.4444 0.0
0.3333 -0.4444 0.0
0.3667 -0.4444 0.0
0.4 -0.4444 0.0
0.4333 -0.4444 0.0
0.4667 -0.4444 0.0
0.5 -0.4444 0.0
0.5333 -0.4444 0.0
0.5667 -0.4444 0.0
0.6 -0.4444 0.0
0.6333 -0.4444 0.0
0.6667 -0.4444 0.0
0.7 -0.4444 0.0
0.7333 -0.4444 0.0
0.7667 -0.4444 0.0
0.8 -0.4444 0.0
0.8333 -0.4444 0.0
0.8667 -0.4444 0.0
0.9 -0.4444 0.0
0.9333 -0.4444 0.0
0.9667 -0.4444 0.0
1 -0.4444 0.0
1.0894 -0.4444 0.0
1.1788 -0.4444 0.0
1.2841 -0.4444 0.0
1.3895 -0.4444 0.0
1.5137 -0.4444 0.0
1.6379 -0.4444 0.0
1.7843 -0.4444 0.0
1.9307 -0.4444 0.0
2.1033 -0.4444 0.0
2.2758 -0.4444 0.0
2.4793 -0.4444 0.0
2.6827 -0.4444 0.0
2.9225 -0.4444 0.0
3.1623 -0.4444 0.0
3.4449 -0.4444 0.0
3.7276 -0.4444 0.0
4.0608 -0.4444 0.0
4.394 -0.4444 0.0
4.7867 -0.4444 0.0
5.1795 -0.4444 0.0
5.6424 -0.4444 0.0
6.1054 -0.4444 0.0
6.6511 -0.4444 0.0
7.1969 -0.4444 0.0
7.8401 -0.4444 0.0
8.4834 -0.4444 0.0
9.2417 -0.4444 0.0
10 -0.4444 0.0
0 -0.4889 0.0
0.0667 -0.4889 0.0
0.1333 -0.4889 0.0
0.2 -0.4889 0.0
0.2667 -0.4889 0.0
0.3333 -0.4889 0.0
0.4 -0.4889 0.0
0.4667 -0.4889 0.0
0.5333 -0.4889 0.0
0.6 -0.4889 0.0
0.6667 -0.4889 0.0
0.7333 -0.4889 0.0
0.8 -0.4889 0.0
0.8667 -0.4889 0.0
0.9333 -0.4889 0.0
1 -0.4889 0.0
1.1788 -0.4889 0.0
1.3895 -0.4889 0.0
1.6379 -0.4889 0.0
1.9307 -0.4889 0.0
2.2758 -0.4889 0.0
2.6827 -0.4889 0.0
3.1623 -0.4889 0.0
3.7276 -0.4889 0.0
4.394 -0.4889 0.0
5.1795 -0.4889 0.0
6.1054 -0.4889 0.0
7.1969 -0.4889 0.0
8.4834 -0.4889 0.0
10 -0.4889 0.0
0 -0.5333 0.0
0.0333 -0.5333 0.0
0.0667 -0.5333 0.0
0.1 -0.5333 0.0
0.1333 -0.5333 0.0
0.1667 -0.5333 0.0
0.2 -0.5333 0.0
0.2333 -0.5333 0.0
0.2667 -0.5333 0.0
0.3 -0.5333 0.0
0.3333 -0.5333 0.0
0.3667 -0.5333 0.0
0.4 -0.5333 0.0
0.4333 -0.5333 0.0
0.4667 -0.5333 0.0
0.5 -0.5333 0.0
0.5333 -0.5333 0.0
0.5667 -0.5333 0.0
0.6 -0.5333 0.0
0.6333 -0.5333 0.0
0.6667 -0.5333 0.0
0.7 -0.5333 0.0
0.7333 -0.5333 0.0
0.7667 -0.5333 0.0
0.8 -0.5333 0.0
0.8333 -0.5333 0.0
0.8667 -0.5333 0.0
0.9 -0.5333 0.0
0.9333 -0.5333 0.0
0.9667 -0.5333 0.0
1 -0.5333 0.0
1.0894 -0.5333 0.0
1.1788 -0.5333 0.0
1.2841 -0.5333 0.0
[...]
POINT_DATA 8069
SCALARS Displacement_R double 1
LOOKUP_TABLE default
0
-1.38426
-2.3636
-2.47628
-2.4046
-2.43005
-2.41533
-2.42439
-2.41941
-2.4237
-2.42218
-2.4246
-2.42411
-2.42573
-2.42577
-2.42713
-2.42751
-2.42858
-2.429
-2.42994
-2.43043
-2.43137
-2.43195
-2.43281
-2.43327
-2.43427
-2.43477
-2.43725
-2.43734
-2.4365
-2.42754
-2.32274
-2.2048
-2.09616
-1.99638
-1.89205
-1.79815
-1.70155
-1.61487
-1.52529
-1.4448
-1.36157
-1.28552
-1.20911
-1.13143
-1.03988
-0.949794
-0.861075
-0.77983
-0.695629
-0.618493
-0.537052
-0.461869
-0.381602
-0.307202
-0.227396
-0.153377
-0.0737327
0
0
-0.219156
-0.960575
-1.33573
-1.56041
-1.70687
-1.80934
-1.88421
-1.94049
-1.98375
-2.01701
-2.04201
-2.05954
-2.06879
-2.06513
-2.04506
-1.95555
-1.81113
-1.66021
-1.51016
-1.36455
-1.22341
-1.08012
-0.916293
-0.755869
-0.601596
-0.450382
-0.300117
-0.150032
0
0
0.236743
0.0182598
-0.0752422
-0.240815
-0.455222
-0.640358
-0.798976
-0.932315
-1.04747
-1.14498
-1.23026
-1.3033
-1.36749
-1.42357
-1.47294
-1.51631
-1.55491
-1.58879
-1.61875
-1.6451
-1.66802
-1.68769
-1.70442
-1.71789
-1.72813
-1.73472
-1.73835
-1.73829
-1.73497
-1.73269
-1.73121
-1.7137
-1.67674
-1.63328
-1.579
-1.52565
-1.46473
-1.40765
-1.34407
-1.28566
-1.22092
-1.16207
-1.09444
-1.03055
-0.954662
-0.882693
-0.803653
-0.732022
-0.655135
-0.584728
-0.508907
-0.43892
-0.363187
-0.29304
-0.217068
-0.146687
-0.0704855
0
0
0.164643
0.0247673
-0.241255
-0.505027
-0.724358
-0.901074
-1.04229
-1.15508
-1.24533
-1.3168
-1.37201
-1.41254
-1.43929
-1.45419
-1.46476
-1.49183
-1.46348
-1.3957
-1.30766
-1.20811
-1.1009
-0.981744
-0.848718
-0.708084
-0.567884
-0.42747
-0.285964
-0.143334
0
0
0.0447937
0.160859
0.167177
0.13601
0.0704128
-0.0232538
-0.120035
-0.221836
-0.320952
-0.415513
-0.504271
-0.585959
-0.661375
-0.730278
-0.793231
-0.850201
-0.902288
-0.949006
-0.991332
-1.0292
-1.06305
-1.09283
-1.11919
-1.14186
-1.16136
-1.17804
-1.19232
-1.20517
-1.21739
-1.22923
-1.26179
-1.28815
-1.30249
-1.30167
-1.29017
-1.27027
-1.24206
-1.21027
-1.17163
-1.13211
-1.08626
-1.04083
-0.98673
-0.934289
-0.873582
-0.814913
-0.747342
-0.684248
-0.615209
-0.551092
-0.481106
-0.416048
-0.344971
-0.278897
-0.20684
-0.139984
-0.0672705
0
0
0.142535
0.177998
0.0999341
-0.0392128
-0.194947
-0.3453
-0.48061
-0.598056
-0.6981
-0.781675
-0.850125
-0.905318
-0.949502
-0.986232
-1.02022
-1.10348
-1.15084
-1.15082
-1.11651
-1.05849
-0.982374
-0.888269
-0.781561
-0.660644
-0.534423
-0.404691
-0.27186
-0.13664
0
0
0.0820275
0.127997
0.170472
0.18938
0.186403
0.164625
0.127003
0.0776804
0.0218386
-0.0387773
-0.10071
-0.162808
-0.223359
-0.282139
-0.337935
-0.390777
-0.440519
-0.486825
-0.529837
-0.569716
-0.606334
-0.639949
-0.670839
-0.699077
-0.725011
-0.74914
-0.771701
-0.793201
-0.814033
-0.834487
-0.887753
-0.935702
-0.979566
-1.00911
-1.02886
-1.03648
-1.03504
-1.02572
-1.00852
-0.986632
-0.95743
-0.925186
-0.884437
-0.843393
-0.795804
-0.748532
-0.691957
-0.637159
-0.575807
-0.517821
-0.453625
-0.393368
-0.326937
-0.264836
-0.196701
-0.133299
-0.0640831
0
0
0.119794
0.192224
0.19973
0.152389
0.0709729
-0.0262712
-0.126744
-0.223025
-0.311634
-0.390835
-0.460335
-0.521159
-0.574895
-0.623771
-0.67016
-0.784333
-0.877746
-0.928241
-0.938588
-0.917106
-0.869649
-0.799807
-0.716102
-0.613961
-0.501367
-0.382128
-0.257854
-0.129972
0
0
0.0549143
0.111738
0.155578
0.189375
0.209693
0.217631
0.213774
0.199518
0.176929
0.147509
0.113192
0.0753674
0.0355339
-0.00566086
-0.0469146
-0.0878822
-0.128068
-0.166975
-0.204419
-0.240404
-0.274615
-0.307191
-0.338265
-0.367788
-0.395995
-0.423176
-0.449377
-0.474863
-0.499903
-0.524381
-0.588268
-0.647393
-0.70751
-0.755627
-0.797257
-0.825417
-0.845399
-0.854666
-0.855904
-0.849515
-0.835271
-0.815463
-0.78739
-0.757255
-0.721254
-0.684084
-0.637704
-0.590911
-0.537002
-0.484993
-0.426486
-0.370927
-0.309089
-0.250887
-0.186648
-0.12665
-0.0609218
0
0
0.104255
0.1842
0.226313
0.229356
0.200718
0.150376
0.0876197
0.0196197
-0.0490592
-0.115452
-0.178077
-0.236848
-0.292186
-0.344924
-0.396058
-0.524321
-0.643285
-0.728824
-0.774586
-0.784362
-0.762957
-0.715901
-0.652714
-0.568174
-0.468782
-0.359819
-0.243968
-0.123346
0
0
0.0509895
0.0981167
0.1414
0.178308
0.207758
0.229105
0.242139
0.247429
0.245476
0.237164
0.223464
0.205255
0.183577
0.15899
0.132542
0.10462
0.0757993
0.0465443
0.0172127
-0.0121324
-0.0410542
-0.0696014
-0.0977381
-0.125334
-0.152453
-0.179251
-0.205607
-0.23166
-0.257511
-0.28303
-0.350105
-0.413681
-0.481508
-0.539866
-0.59537
-0.637901
-0.673999
-0.698022
-0.714546
-0.721412
-0.720398
-0.711962
-0.695608
-0.67561
-0.649991
-0.621879
-0.584846
-0.545666
-0.498915
-0.452699
-0.399748
-0.34878
-0.291458
-0.237084
-0.176697
-0.120054
-0.0577902
0
0
0.0931882
0.172565
0.228741
0.258011
0.261981
0.245257
0.213358
0.171497
0.123676
0.0729213
0.0212049
-0.0306138
-0.0820712
-0.133033
-0.183631
-0.314214
-0.444834
-0.552605
-0.625003
-0.660687
-0.662438
-0.636291
-0.591577
-0.523391
-0.436722
-0.337792
-0.23022
-0.116769
0
0
0.0449242
0.0888692
0.129733
0.166862
0.199216
0.226269
0.247577
0.263279
0.273311
0.278109
0.27807
0.273681
0.265521
0.25402
0.239836
0.223325
0.204943
0.185086
0.164102
0.142114
0.119538
0.0964167
0.0728634
0.0490696
0.0250731
0.000822396
-0.0234784
-0.0478759
-0.072399
-0.0968528
-0.162098
-0.22542
-0.295258
-0.358071
-0.421268
-0.472995
-0.520478
-0.555688
-0.584448
-0.602367
-0.612827
-0.614555
-0.608831
-0.598089
-0.581839
-0.561908
-0.53343
-0.501422
-0.461531
-0.420918
-0.373379
-0.326901
-0.274015
-0.223408
-0.16683
-0.113504
-0.054682
0
0
0.0849815
0.161309
0.222578
0.265064
0.28816
0.293596
0.284217
0.263308
0.233824
0.198286
0.158639
0.116081
0.0715459
0.0257151
-0.0210338
-0.145975
-0.278729
-0.398687
-0.489883
-0.546309
-0.568159
-0.560843
-0.53279
-0.47971
-0.405234
-0.316068
-0.216621
-0.110248
0
0
0.0411926
0.0814876
0.119975
0.155964
0.188869
0.218068
0.24323
0.26431
0.281036
0.293605
0.302146
0.306857
0.308047
0.305993
0.301059
0.293519
0.283695
0.271879
0.25836
0.243272
0.226961
0.209517
0.19108
0.171854
0.151932
0.131323
0.110263
0.0887561
0.0668292
0.0446851
-0.0154988
-0.0754195
-0.143408
-0.206661
-0.272939
-0.329706
-0.38452
-0.427701
-0.465822
-0.492662
-0.512808
-0.523398
-0.527114
-0.524686
-0.516863
-0.504321
-0.483639
-0.458325
-0.424959
-0.389732
-0.34744
-0.305338
-0.256795
-0.209887
-0.157063
-0.107013
-0.0516018
0
0
0.0783077
0.150838
0.213084
0.261842
0.295767
0.315189
0.321337
0.316077
0.30139
0.279153
0.251021
0.218221
0.181835
0.142782
0.101702
-0.0126118
-0.14105
-0.265604
-0.368907
-0.441265
-0.480122
-0.489477
-0.476412
-0.437216
-0.374362
-0.29467
-0.203181
-0.103788
0
0
0.0379383
0.0753676
0.111496
0.145905
0.178182
0.207794
0.234472
0.258124
0.278418
0.295427
0.309165
0.319654
0.327045
0.331511
0.333212
0.332347
0.329126
0.323743
0.316415
0.307268
0.296561
0.2844
0.270919
0.256308
0.240677
0.224071
0.206714
0.188646
0.169918
0.150729
0.0974214
0.0428561
-0.0207726
-0.0817377
-0.147771
-0.206384
-0.265211
-0.313585
-0.358474
-0.392243
-0.420329
-0.43846
-0.4504
-0.455333
-0.455045
-0.449159
-0.435562
-0.416453
-0.389254
-0.359182
-0.321956
-0.284108
-0.239808
-0.196531
-0.147402
-0.100585
-0.0485511
0
0
0.072611
0.141141
0.202333
0.253546
0.293281
0.321233
0.337726
0.343698
0.340388
0.329091
0.311097
0.287499
0.259335
0.227564
0.19292
0.0919611
-0.0279743
-0.151575
-0.261471
-0.34542
-0.398265
-0.422128
-0.422472
-0.395981
-0.344144
-0.273615
-0.18991
-0.0973934
0
0
0.0351882
0.0700195
0.103909
0.136551
0.167671
0.196794
0.223724
0.248361
0.270372
0.289771
0.306526
0.32056
0.331942
0.340773
0.347088
0.351026
0.35272
0.352279
0.349864
0.345579
0.339602
0.332038
0.323004
0.312657
0.301107
0.288411
0.274769
0.260234
0.24487
0.228859
0.183222
0.13506
0.0773001
0.0203984
-0.0430737
-0.101161
-0.161378
-0.212627
-0.262017
-0.300901
-0.335269
-0.35965
-0.378611
-0.389967
-0.396359
-0.396442
-0.38926
-0.37587
-0.354465
-0.329304
-0.296953
-0.26323
-0.223068
-0.183346
-0.137853
-0.0942249
-0.0455311
0
0
0.0675662
0.132123
0.191246
0.242777
0.285284
0.318206
0.34139
0.355202
0.36037
0.35773
0.348229
0.332766
0.312244
0.28755
0.259414
0.172898
0.0639579
-0.0547795
-0.166871
-0.258593
-0.322552
-0.358801
-0.371036
-0.356105
-0.314647
-0.252941
-0.176829
-0.0910752
0
0
0.0327346
0.065227
0.0969988
0.127834
0.157544
0.185712
0.212197
0.23691
0.259533
0.280058
0.29844
0.314547
0.328409
0.340083
0.349527
0.356839
0.362101
0.36536
0.366729
0.366295
0.364168
0.360442
0.355211
0.348599
0.340705
0.331589
0.321413
0.310241
0.298133
0.285251
0.247388
0.206023
0.154908
0.103136
0.0437627
-0.0121022
-0.0717019
-0.123951
-0.175915
-0.218304
-0.257423
-0.286826
-0.31165
-0.328519
-0.340771
-0.346172
-0.344772
-0.336623
-0.320633
-0.30013
-0.272454
-0.24272
-0.206585
-0.170342
-0.12842
-0.0879358
-0.0425433
0
0
0.0630006
0.123703
0.180261
0.230905
0.274342
0.30994
0.337308
0.356477
0.367839
0.371892
0.369297
0.360759
0.347013
0.328828
0.306873
0.234822
0.138165
0.0269255
-0.0839643
-0.180205
-0.252648
-0.29928
-0.321982
-0.31754
-0.285835
-0.23262
-0.163918
-0.0848229
0
0
0.0305191
0.0608676
0.0906481
0.119705
0.147907
0.174889
0.200549
0.224813
0.247389
0.26826
0.287383
0.3046
0.319921
0.333378
0.344887
0.354515
0.362314
0.368286
0.372511
0.375058
0.375985
0.375373
0.373297
0.369846
0.365105
0.359131
0.352052
0.343929
0.33482
0.324861
0.294438
0.25982
0.215603
0.169506
0.115176
0.0626908
0.0051898
-0.0465855
-0.0995277
-0.144026
-0.186515
-0.219798
-0.249391
-0.270908
-0.288234
-0.298334
-0.302117
-0.298749
-0.287791
-0.271685
-0.248476
-0.222591
-0.190368
-0.157526
-0.119109
-0.081721
-0.0395889
0
0
0.0588308
0.115857
0.169644
0.21873
0.261975
0.298762
0.328597
0.35132
0.367112
0.376234
0.379124
0.376315
0.368381
0.355957
0.339627
0.281355
0.19738
0.095277
-0.0118662
-0.109897
-0.18843
-0.243549
-0.27535
-0.280359
-0.257763
-0.212686
-0.151198
-0.0786464
0
0
0.028498
0.0568753
0.0847927
0.112138
0.138819
0.164515
0.189152
0.212673
0.234811
0.255548
0.274849
0.292545
0.308638
0.323148
0.335965
0.34714
0.356704
0.364626
0.370967
0.37578
0.379084
0.380949
0.381433
0.380593
0.378502
0.375212
0.370816
0.365374
0.358937
0.351614
0.328048
0.299845
0.262422
0.222171
0.173385
0.125017
0.0706619
0.0204816
-0.0321503
-0.077574
-0.122213
-0.158339
-0.191686
-0.217037
-0.238693
-0.252902
-0.261301
-0.262269
-0.255964
-0.243992
-0.225038
-0.202855
-0.174428
-0.144903
-0.109923
-0.0755835
-0.0366693
0
0
0.0550057
0.108563
0.159538
0.206711
0.249091
0.286109
0.317241
0.342227
0.361118
0.374014
0.381183
0.383023
0.379962
0.372507
0.361155
0.31558
0.244087
0.152009
0.0504407
-0.0471533
-0.129655
-0.191503
-0.231105
-0.244579
-0.230452
-0.193152
-0.138674
-0.0725486
0
0
0.0266477
0.0532097
0.0793916
0.105112
0.130309
0.154695
0.178221
0.200842
0.222315
0.242628
0.261751
0.279514
0.29592
0.310979
0.324571
0.336734
0.34749
0.356784
0.364664
0.371172
0.376297
0.380099
0.382625
0.383905
0.383999
0.382956
0.380838
0.3777
0.373588
0.368585
0.351176
0.328893
0.297931
0.263441
0.220376
0.176538
0.126027
0.0782639
0.0269543
-0.0184146
-0.06415
-0.10219
-0.138365
-0.166792
-0.192076
-0.209836
-0.222316
-0.227193
-0.225169
-0.217067
-0.202152
-0.183525
-0.158772
-0.13248
-0.100868
-0.0695261
-0.0337856
0
0
0.0514923
0.1018
0.150017
0.195116
0.236237
0.272874
0.30451
0.330839
0.351833
0.367486
0.377946
0.383499
0.384456
0.38121
0.374173
0.340028
0.280424
0.198709
0.103959
0.00857378
-0.0760518
-0.143022
-0.189204
-0.210205
-0.203915
-0.174026
-0.126353
-0.0665321
0
0
0.0249532
0.0498462
0.0744194
0.0986153
0.122391
0.145492
0.167883
0.189533
0.210221
0.229937
0.248661
0.266228
0.282638
0.297903
0.311893
0.324643
0.336167
0.346397
0.35537
0.363121
0.369618
0.374913
0.379043
0.382017
0.383887
0.384694
0.384477
0.383285
0.38116
0.378162
0.36617
0.349228
0.324253
0.295262
0.257859
0.21872
0.17247
0.127694
0.078475
0.0339532
-0.0119842
-0.051123
-0.0892908
-0.120097
-0.14835
-0.169134
-0.185182
-0.193558
-0.195448
-0.190951
-0.179855
-0.164628
-0.143423
-0.120276
-0.0919557
-0.0635577
-0.0309422
0
0
0.0482653
0.0955482
0.141114
0.184095
0.223742
0.259612
0.291217
0.318234
0.340592
0.358215
0.371165
0.379645
0.383872
0.384141
0.380789
0.356756
0.308217
0.236806
0.14965
0.0578449
-0.0273286
-0.0979701
-0.149592
-0.177231
-0.178162
-0.155319
-0.11424
-0.0605992
0
0
0.0233977
0.046754
0.0698378
0.092609
0.11504
0.136902
0.158172
0.178831
0.198674
0.217698
0.23589
0.253091
0.269303
0.284537
0.298665
0.311714
0.323698
0.334538
0.344265
0.352909
0.360424
0.366854
0.372231
0.376546
0.379843
0.382159
0.383513
0.383949
0.383503
0.382218
0.374935
0.362746
0.343228
0.319383
0.287443
0.253006
0.211231
0.169819
0.123256
0.0802086
0.0348114
-0.00472488
-0.0441475
-0.0767039
-0.107323
-0.130642
-0.149786
-0.16128
-0.166739
-0.165592
-0.158104
-0.146131
-0.128353
-0.108267
-0.0831706
-0.0576672
-0.0281335
0
0
0.0453032
0.0897815
0.132835
0.173723
0.211794
0.246664
0.277881
0.305122
0.328296
0.347284
0.362086
0.372845
0.379701
0.382873
0.382632
0.367425
0.32901
0.267569
0.188421
0.101219
0.0168194
-0.0562002
-0.112205
-0.145646
-0.153199
-0.137034
-0.102337
-0.0547518
0
0
0.021972
0.0439167
0.0656264
0.0870744
0.108245
0.12893
0.149118
0.168796
0.187779
0.206066
0.223651
0.240382
0.256265
0.27131
0.285392
0.298535
0.310751
0.321957
0.33218
0.341446
0.349699
0.356977
0.363307
0.368669
0.373099
0.376632
0.379268
0.38105
0.382007
0.382167
0.378928
0.370911
0.356294
0.33718
0.310397
0.280536
0.243285
0.205452
0.161938
0.120843
0.0765905
0.0372537
-0.00277543
-0.0365156
-0.0689449
-0.0943402
-0.116134
-0.130381
-0.13907
-0.141024
-0.13693
-0.128059
-0.113584
-0.0964717
-0.0745251
-0.0518634
-0.0253639
0
0
0.042586
0.0844723
0.125166
0.16403
0.200495
0.234232
0.264826
0.291967
0.315553
0.335442
0.351592
0.364101
0.37305
0.378595
0.380955
0.373376
0.344098
0.292118
0.22111
0.139244
0.0567046
-0.0175546
-0.0769709
-0.115427
-0.129025
-0.119176
-0.0906495
-0.0489919
0
0
0.0206657
0.0413148
0.0617593
0.0819829
0.101978
0.121556
0.140713
0.159443
0.177574
0.195111
0.212052
0.228254
0.243726
0.258477
0.272387
0.285478
0.297762
0.309154
0.319677
0.329355
0.338126
0.346024
0.353072
0.35924
0.36456
0.369063
0.372737
0.375621
0.37774
0.379109
0.379311
0.374922
0.364659
0.349839
0.327849
0.302356
0.269564
0.235397
0.195184
0.156395
0.113766
0.0751267
0.0350507
0.000630304
-0.033104
-0.0601527
-0.0841796
-0.100835
-0.112435
-0.117243
-0.116334
-0.110417
-0.0991185
-0.0848923
-0.0660218
-0.0461477
-0.022634
0
0
0.0400951
0.0795913
0.118081
0.155014
0.189891
0.22243
0.252253
0.279067
0.302771
0.323209
0.34031
0.354139
0.364736
0.372206
0.376723
0.37568
0.354566
0.31143
0.248489
0.172447
0.0926412
0.0181321
-0.0438105
-0.0865477
-0.105637
-0.101749
-0.0791792
-0.043321
0
0
0.0194693
0.03893
0.0582113
0.0773044
0.096209
0.114752
0.132936
0.150759
0.168064
0.184859
0.201146
0.21679
0.231801
0.246191
0.259844
0.272782
0.285016
0.29646
0.307136
0.317067
0.326185
0.334522
0.3421
0.348878
0.354888
0.360157
0.364663
0.368441
0.371516
0.373889
0.376998
0.375738
0.369309
0.358349
0.340763
0.319378
0.290895
0.260389
0.223616
0.187377
0.146743
0.109208
0.0695612
0.0349024
0.000317636
-0.0279966
-0.0538703
-0.0726132
-0.0868177
-0.0942463
-0.0963168
-0.0932047
-0.08496
-0.0735314
-0.0576627
-0.0405219
-0.0199447
0
0
0.0378148
0.0751131
0.111557
0.146665
0.180002
0.211324
0.240289
0.266625
0.290233
0.310951
0.328693
0.343499
0.355376
0.364391
0.370681
0.375197
0.361312
0.326337
0.271232
0.201296
0.124906
0.0509956
-0.0126721
-0.0590048
-0.0830536
-0.0847713
-0.0679408
-0.0377467
0
0
0.0183736
0.036745
0.0549576
0.0730091
0.090904
0.108484
0.125754
0.14272
0.159234
0.175307
0.190946
0.206023
0.220549
0.234539
0.24788
0.260594
0.272694
0.284093
0.294813
0.304874
0.314207
0.322842
0.330798
0.338031
0.344568
0.350434
0.355601
0.3601
0.363954
0.367155
0.372703
0.374127
0.371052
0.363534
0.349956
0.332389
0.308012
0.281093
0.247806
0.214275
0.175911
0.139805
0.100988
0.0664741
0.0314436
0.00221644
-0.0251483
-0.0456782
-0.0621998
-0.0720232
-0.0768748
-0.0764229
-0.0711092
-0.0623907
-0.0494493
-0.034987
-0.0172966
0
0
0.0357234
0.0709982
0.105543
0.138936
0.170794
0.200909
0.228971
0.254727
0.278085
0.298885
0.317027
0.332537
0.345397
0.355642
0.363385
0.372611
0.365099
0.337606
0.290019
0.226327
0.153878
0.0812848
0.0166056
-0.0326973
-0.0612124
-0.0682038
-0.0569104
-0.0322576
0
0
0.0173703
0.0347434
0.0519751
0.0690678
0.0860302
0.102716
0.119135
0.135293
0.151057
0.166438
0.181446
0.19596
0.209994
0.223562
0.236558
0.249002
0.260909
0.272193
0.282874
0.292974
0.302422
0.311244
0.31946
0.327021
0.333953
0.340279
0.345964
0.351039
0.355524
0.359403
0.366988
0.370701
0.370543
0.366076
0.356119
0.342071
0.321561
0.298103
0.268283
0.237545
0.201644
0.167222
0.129562
0.095521
0.0604019
0.0305797
0.00204972
-0.0199894
-0.0385576
-0.0505616
-0.0580027
-0.0600696
-0.0575664
-0.0514712
-0.0413829
-0.0295441
-0.0146903
0
0
0.0338076
0.0672232
0.100012
0.131803
0.162256
0.191194
0.218337
0.243451
0.266453
0.287184
0.305541
0.321536
0.335136
0.346352
0.355274
0.368467
0.366538
0.345848
0.305387
0.247944
0.179816
0.109138
0.0440815
-0.00761384
-0.0401252
-0.0520632
-0.0461014
-0.0268609
0
0
0.0164517
0.03291
0.0492416
0.0654528
0.0815552
0.0974132
0.113039
0.128444
0.1435
0.158223
0.172624
0.186589
0.200133
0.213273
0.225905
0.238051
0.249726
0.260845
0.27143
0.281499
0.290983
0.299908
0.30829
0.31608
0.3233
0.329974
0.336062
0.341592
0.346583
0.351015
0.360291
0.365947
0.368316
0.36654
0.359835
0.349007
0.332107
0.311952
0.285527
0.257608
0.224296
0.191748
0.155512
0.12222
0.0873234
0.0571902
0.027791
0.00449872
-0.0158639
-0.0298457
-0.0396928
-0.0441414
-0.0443307
-0.040773
-0.0334642
-0.0241939
-0.0121261
0
0
0.032053
0.0637614
0.0949285
0.125227
0.154355
0.182161
0.20839
0.232829
0.255401
0.275955
0.294384
0.310695
0.324838
0.33681
0.346681
0.363201
0.366144
0.351605
0.317838
0.266554
0.203004
0.13473
0.0698542
0.016293
-0.0197747
-0.0363453
-0.0355137
-0.0215572
0
0
0.0156107
0.031231
0.0467372
0.0621384
0.0774486
0.092542
0.107433
0.122134
0.136527
0.150628
0.164451
0.177886
0.190953
0.203666
0.215928
0.22776
0.239178
0.250099
0.260545
0.270534
0.279997
0.288957
0.297433
0.305372
0.312797
0.319727
0.326123
0.332009
0.337404
0.342283
0.352956
0.360256
0.364806
0.365394
0.361597
0.353698
0.340145
0.323113
0.299973
0.274855
0.244202
0.213663
0.17906
0.146747
0.112341
0.0821478
0.0521463
0.0278351
0.00591209
-0.00985689
-0.0219351
-0.0286331
-0.0314001
-0.030296
-0.0256936
-0.018937
-0.00960443
0
0
0.0304462
0.0605881
0.0902606
0.119174
0.147056
0.173782
0.199119
0.222869
0.244966
0.265266
0.28366
0.30015
0.314681
0.327233
0.337864
0.357162
0.364343
0.355339
0.327817
0.28253
0.223717
0.158239
0.0940249
0.0390739
-0.00014106
-0.0210444
-0.0251468
-0.0163471
0
0
0.0148417
0.0296953
0.0444456
0.059104
0.0736863
0.088075
0.102286
0.116335
0.130109
0.143626
0.156902
0.169833
0.182439
0.194735
0.206629
0.218141
0.229289
0.239991
0.250269
0.260142
0.26954
0.278487
0.287001
0.295027
0.302588
0.309703
0.316328
0.322489
0.328202
0.333439
0.345261
0.353946
0.360371
0.363028
0.361819
0.356572
0.3461
0.331998
0.312002
0.289629
0.261656
0.233214
0.200401
0.169252
0.135563
0.105529
0.075164
0.0500476
0.0267811
0.0094047
-0.00473663
-0.0135552
-0.018786
-0.0200506
-0.0180798
-0.0137796
-0.00712836
0
0
0.0289754
0.0576805
0.0859771
0.113607
0.140326
0.166028
0.190502
0.213567
0.235164
0.255155
0.273434
0.290001
0.304794
0.317784
0.329017
0.350628
0.361486
0.357449
0.335721
0.296218
0.242214
0.179834
0.116696
0.0607823
0.0187982
-0.00615343
-0.0149994
-0.0112308
0
0
0.0141372
0.0282883
0.0423452
0.0563213
0.0702338
0.0839728
0.0975557
0.110998
0.124195
0.137166
0.149927
0.16238
0.174544
0.186437
0.19797
0.209163
0.220034
0.230506
0.240597
0.250329
0.259631
0.268528
0.277037
0.285103
0.292747
0.299988
0.306782
0.313152
0.319114
0.324637
0.3374
0.347251
0.355289
0.359757
0.360852
0.358002
0.350362
0.338999
0.321998
0.302293
0.276988
0.250698
0.219791
0.189956
0.157174
0.12749
0.0969719
0.0712409
0.0468265
0.0280061
0.011955