# vtk DataFile Version 2.0
./vtk
ASCII

DATASET UNSTRUCTURED_GRID
POINTS 889 double
0 0 0.0
0.5 0 0.0
1 0 0.0
1.5 0 0.0
2 0 0.0
2.5 0 0.0
3 0 0.0
3.5 0 0.0
4 0 0.0
4.5 0 0.0
5 0 0.0
6.9457 0 0.0
8.8914 0 0.0
12.3514 0 0.0
15.8114 0 0.0
21.9642 0 0.0
28.1171 0 0.0
39.0585 0 0.0
50 0 0.0
0 -0.5 0.0
1 -0.5 0.0
2 -0.5 0.0
3 -0.5 0.0
4 -0.5 0.0
5 -0.5 0.0
8.8914 -0.5 0.0
15.8114 -0.5 0.0
28.1171 -0.5 0.0
50 -0.5 0.0
0 -1 0.0
0.5 -1 0.0
1 -1 0.0
1.5 -1 0.0
2 -1 0.0
2.5 -1 0.0
3 -1 0.0
3.5 -1 0.0
4 -1 0.0
4.5 -1 0.0
5 -1 0.0
6.9457 -1 0.0
8.8914 -1 0.0
12.3514 -1 0.0
15.8114 -1 0.0
21.9642 -1 0.0
28.1171 -1 0.0
39.0585 -1 0.0
50 -1 0.0
0 -1.5 0.0
1 -1.5 0.0
2 -1.5 0.0
3 -1.5 0.0
4 -1.5 0.0
5 -1.5 0.0
8.8914 -1.5 0.0
15.8114 -1.5 0.0
28.1171 -1.5 0.0
50 -1.5 0.0
0 -2 0.0
0.5 -2 0.0
1 -2 0.0
1.5 -2 0.0
2 -2 0.0
2.5 -2 0.0
3 -2 0.0
3.5 -2 0.0
4 -2 0.0
4.5 -2 0.0
5 -2 0.0
6.9457 -2 0.0
8.8914 -2 0.0
12.3514 -2 0.0
15.8114 -2 0.0
21.9642 -2 0.0
28.1171 -2 0.0
39.0585 -2 0.0
50 -2 0.0
0 -2.5 0.0
1 -2.5 0.0
2 -2.5 0.0
3 -2.5 0.0
4 -2.5 0.0
5 -2.5 0.0
8.8914 -2.5 0.0
15.8114 -2.5 0.0
28.1171 -2.5 0.0
50 -2.5 0.0
0 -3 0.0
0.5 -3 0.0
1 -3 0.0
1.5 -3 0.0
2 -3 0.0
2.5 -3 0.0
3 -3 0.0
3.5 -3 0.0
4 -3 0.0
4.5 -3 0.0
5 -3 0.0
6.9457 -3 0.0
8.8914 -3 0.0
12.3514 -3 0.0
15.8114 -3 0.0
21.9642 -3 0.0
28.1171 -3 0.0
39.0585 -3 0.0
50 -3 0.0
0 -3.5 0.0
1 -3.5 0.0
2 -3.5 0.0
3 -3.5 0.0
4 -3.5 0.0
5 -3.5 0.0
8.8914 -3.5 0.0
15.8114 -3.5 0.0
28.1171 -3.5 0.0
50 -3.5 0.0
0 -4 0.0
0.5 -4 0.0
1 -4 0.0
1.5 -4 0.0
2 -4 0.0
2.5 -4 0.0
3 -4 0.0
3.5 -4 0.0
4 -4 0.0
4.5 -4 0.0
5 -4 0.0
6.9457 -4 0.0
8.8914 -4 0.0
12.3514 -4 0.0
15.8114 -4 0.0
21.9642 -4 0.0
28.1171 -4 0.0
39.0585 -4 0.0
50 -4 0.0
0 -4.5 0.0
1 -4.5 0.0
2 -4.5 0.0
3 -4.5 0.0
4 -4.5 0.0
5 -4.5 0.0
8.8914 -4.5 0.0
15.8114 -4.5 0.0
28.1171 -4.5 0.0
50 -4.5 0.0
0 -5 0.0
0.5 -5 0.0
1 -5 0.0
1.5 -5 0.0
2 -5 0.0
2.5 -5 0.0
3 -5 0.0
3.5 -5 0.0
4 -5 0.0
4.5 -5 0.0
5 -5 0.0
6.9457 -5 0.0
8.8914 -5 0.0
12.3514 -5 0.0
15.8114 -5 0.0
21.9642 -5 0.0
28.1171 -5 0.0
39.0585 -5 0.0
50 -5 0.0
0 -5.5 0.0
1 -5.5 0.0
2 -5.5 0.0
3 -5.5 0.0
4 -5.5 0.0
5 -5.5 0.0
8.8914 -5.5 0.0
15.8114 -5.5 0.0
28.1171 -5.5 0.0
50 -5.5 0.0
0 -6 0.0
0.5 -6 0.0
1 -6 0.0
1.5 -6 0.0
2 -6 0.0
2.5 -6 0.0
3 -6 0.0
3.5 -6 0.0
4 -6 0.0
4.5 -6 0.0
5 -6 0.0
6.9457 -6 0.0
8.8914 -6 0.0
12.3514 -6 0.0
15.8114 -6 0.0
21.9642 -6 0.0
28.1171 -6 0.0
39.0585 -6 0.0
50 -6 0.0
0 -6.5 0.0
1 -6.5 0.0
2 -6.5 0.0
3 -6.5 0.0
4 -6.5 0.0
5 -6.5 0.0
8.8914 -6.5 0.0
15.8114 -6.5 0.0
28.1171 -6.5 0.0
50 -6.5 0.0
0 -7 0.0
0.5 -7 0.0
1 -7 0.0
1.5 -7 0.0
2 -7 0.0
2.5 -7 0.0
3 -7 0.0
3.5 -7 0.0
4 -7 0.0
4.5 -7 0.0
5 -7 0.0
6.9457 -7 0.0
8.8914 -7 0.0
12.3514 -7 0.0
15.8114 -7 0.0
21.9642 -7 0.0
28.1171 -7 0.0
39.0585 -7 0.0
50 -7 0.0
0 -7.5 0.0
1 -7.5 0.0
2 -7.5 0.0
3 -7.5 0.0
4 -7.5 0.0
5 -7.5 0.0
8.8914 -7.5 0.0
15.8114 -7.5 0.0
28.1171 -7.5 0.0
50 -7.5 0.0
0 -8 0.0
0.5 -8 0.0
1 -8 0.0
1.5 -8 0.0
2 -8 0.0
2.5 -8 0.0
3 -8 0.0
3.5 -8 0.0
4 -8 0.0
4.5 -8 0.0
5 -8 0.0
6.9457 -8 0.0
8.8914 -8 0.0
12.3514 -8 0.0
15.8114 -8 0.0
21.9642 -8 0.0
28.1171 -8 0.0
39.0585 -8 0.0
50 -8 0.0
0 -8.5 0.0
1 -8.5 0.0
2 -8.5 0.0
3 -8.5 0.0
4 -8.5 0.0
5 -8.5 0.0
8.8914 -8.5 0.0
15.8114 -8.5 0.0
28.1171 -8.5 0.0
50 -8.5 0.0
0 -9 0.0
0.5 -9 0.0
1 -9 0.0
1.5 -9 0.0
2 -9 0.0
2.5 -9 0.0
3 -9 0.0
3.5 -9 0.0
4 -9 0.0
4.5 -9 0.0
5 -9 0.0
6.9457 -9 0.0
8.8914 -9 0.0
12.3514 -9 0.0
15.8114 -9 0.0
21.9642 -9 0.0
28.1171 -9 0.0
39.0585 -9 0.0
50 -9 0.0
0 -9.5 0.0
1 -9.5 0.0
2 -9.5 0.0
3 -9.5 0.0
4 -9.5 0.0
5 -9.5 0.0
8.8914 -9.5 0.0
15.8114 -9.5 0.0
28.1171 -9.5 0.0
50 -9.5 0.0
0 -10 0.0
0.5 -10 0.0
1 -10 0.0
1.5 -10 0.0
2 -10 0.0
2.5 -10 0.0
3 -10 0.0
3.5 -10 0.0
4 -10 0.0
4.5 -10 0.0
5 -10 0.0
6.9457 -10 0.0
8.8914 -10 0.0
12.3514 -10 0.0
15.8114 -10 0.0
21.9642 -10 0.0
28.1171 -10 0.0
39.0585 -10 0.0
50 -10 0.0
0 -10.5 0.0
1 -10.5 0.0
2 -10.5 0.0
3 -10.5 0.0
4 -10.5 0.0
5 -10.5 0.0
8.8914 -10.5 0.0
15.8114 -10.5 0.0
28.1171 -10.5 0.0
50 -10.5 0.0
0 -11 0.0
0.5 -11 0.0
1 -11 0.0
1.5 -11 0.0
2 -11 0.0
2.5 -11 0.0
3 -11 0.0
3.5 -11 0.0
4 -11 0.0
4.5 -11 0.0
5 -11 0.0
6.9457 -11 0.0
8.8914 -11 0.0
12.3514 -11 0.0
15.8114 -11 0.0
21.9642 -11 0.0
28.1171 -11 0.0
39.0585 -11 0.0
50 -11 0.0
0 -11.5 0.0
1 -11.5 0.0
2 -11.5 0.0
3 -11.5 0.0
4 -11.5 0.0
5 -11.5 0.0
8.8914 -11.5 0.0
15.8114 -11.5 0.0
28.1171 -11.5 0.0
50 -11.5 0.0
0 -12 0.0
0.5 -12 0.0
1 -12 0.0
1.5 -12 0.0
2 -12 0.0
2.5 -12 0.0
3 -12 0.0
3.5 -12 0.0
4 -12 0.0
4.5 -12 0.0
5 -12 0.0
6.9457 -12 0.0
8.8914 -12 0.0
12.3514 -12 0.0
15.8114 -12 0.0
21.9642 -12 0.0
28.1171 -12 0.0
39.0585 -12 0.0
50 -12 0.0
0 -12.5 0.0
1 -12.5 0.0
2 -12.5 0.0
3 -12.5 0.0
4 -12.5 0.0
5 -12.5 0.0
8.8914 -12.5 0.0
15.8114 -12.5 0.0
28.1171 -12.5 0.0
50 -12.5 0.0
0 -13 0.0
0.5 -13 0.0
1 -13 0.0
1.5 -13 0.0
2 -13 0.0
2.5 -13 0.0
3 -13 0.0
3.5 -13 0.0
4 -13 0.0
4.5 -13 0.0
5 -13 0.0
6.9457 -13 0.0
8.8914 -13 0.0
12.3514 -13 0.0
15.8114 -13 0.0
21.9642 -13 0.0
28.1171 -13 0.0
39.0585 -13 0.0
50 -13 0.0
0 -13.5 0.0
1 -13.5 0.0
2 -13.5 0.0
3 -13.5 0.0
4 -13.5 0.0
5 -13.5 0.0
8.8914 -13.5 0.0
15.8114 -13.5 0.0
28.1171 -13.5 0.0
50 -13.5 0.0
0 -14 0.0
0.5 -14 0.0
1 -14 0.0
1.5 -14 0.0
2 -14 0.0
2.5 -14 0.0
3 -14 0.0
3.5 -14 0.0
4 -14 0.0
4.5 -14 0.0
5 -14 0.0
6.9457 -14 0.0
8.8914 -14 0.0
12.3514 -14 0.0
15.8114 -14 0.0
21.9642 -14 0.0
28.1171 -14 0.0
39.0585 -14 0.0
50 -14 0.0
0 -14.5 0.0
1 -14.5 0.0
2 -14.5 0.0
3 -14.5 0.0
4 -14.5 0.0
5 -14.5 0.0
8.8914 -14.5 0.0
15.8114 -14.5 0.0
28.1171 -14.5 0.0
50 -14.5 0.0
0 -15 0.0
0.5 -15 0.0
1 -15 0.0
1.5 -15 0.0
2 -15 0.0
2.5 -15 0.0
3 -15 0.0
3.5 -15 0.0
4 -15 0.0
4.5 -15 0.0
5 -15 0.0
6.9457 -15 0.0
8.8914 -15 0.0
12.3514 -15 0.0
15.8114 -15 0.0
21.9642 -15 0.0
28.1171 -15 0.0
39.0585 -15 0.0
50 -15 0.0
0 -16.5 0.0
1 -16.5 0.0
2 -16.5 0.0
3 -16.5 0.0
4 -16.5 0.0
5 -16.5 0.0
8.8914 -16.5 0.0
15.8114 -16.5 0.0
28.1171 -16.5 0.0
50 -16.5 0.0
0 -18 0.0
0.5 -18 0.0
1 -18 0.0
1.5 -18 0.0
2 -18 0.0
2.5 -18 0.0
3 -18 0.0
3.5 -18 0.0
4 -18 0.0
4.5 -18 0.0
5 -18 0.0
6.9457 -18 0.0
8.8914 -18 0.0
12.3514 -18 0.0
15.8114 -18 0.0
21.9642 -18 0.0
28.1171 -18 0.0
39.0585 -18 0.0
50 -18 0.0
0 -19.5 0.0
1 -19.5 0.0
2 -19.5 0.0
3 -19.5 0.0
4 -19.5 0.0
5 -19.5 0.0
8.8914 -19.5 0.0
15.8114 -19.5 0.0
28.1171 -19.5 0.0
50 -19.5 0.0
0 -21 0.0
0.5 -21 0.0
1 -21 0.0
1.5 -21 0.0
2 -21 0.0
2.5 -21 0.0
3 -21 0.0
3.5 -21 0.0
4 -21 0.0
4.5 -21 0.0
5 -21 0.0
6.9457 -21 0.0
8.8914 -21 0.0
12.3514 -21 0.0
15.8114 -21 0.0
21.9642 -21 0.0
28.1171 -21 0.0
39.0585 -21 0.0
50 -21 0.0
0 -22.5 0.0
1 -22.5 0.0
2 -22.5 0.0
3 -22.5 0.0
4 -22.5 0.0
5 -22.5 0.0
8.8914 -22.5 0.0
15.8114 -22.5 0.0
28.1171 -22.5 0.0
50 -22.5 0.0
0 -24 0.0
0.5 -24 0.0
1 -24 0.0
1.5 -24 0.0
2 -24 0.0
2.5 -24 0.0
3 -24 0.0
3.5 -24 0.0
4 -24 0.0
4.5 -24 0.0
5 -24 0.0
6.9457 -24 0.0
8.8914 -24 0.0
12.3514 -24 0.0
15.8114 -24 0.0
21.9642 -24 0.0
28.1171 -24 0.0
39.0585 -24 0.0
50 -24 0.0
0 -25.5 0.0
1 -25.5 0.0
2 -25.5 0.0
3 -25.5 0.0
4 -25.5 0.0
5 -25.5 0.0
8.8914 -25.5 0.0
15.8114 -25.5 0.0
28.1171 -25.5 0.0
50 -25.5 0.0
0 -27 0.0
0.5 -27 0.0
1 -27 0.0
1.5 -27 0.0
2 -27 0.0
2.5 -27 0.0
3 -27 0.0
3.5 -27 0.0
4 -27 0.0
4.5 -27 0.0
5 -27 0.0
6.9457 -27 0.0
8.8914 -27 0.0
12.3514 -27 0.0
15.8114 -27 0.0
21.9642 -27 0.0
28.1171 -27 0.0
39.0585 -27 0.0
50 -27 0.0
0 -28.5 0.0
1 -28.5 0.0
2 -28.5 0.0
3 -28.5 0.0
4 -28.5 0.0
5 -28.5 0.0
8.8914 -28.5 0.0
15.8114 -28.5 0.0
28.1171 -28.5 0.0
50 -28.5 0.0
0 -30 0.0
0.5 -30 0.0
1 -30 0.0
1.5 -30 0.0
2 -30 0.0
2.5 -30 0.0
3 -30 0.0
3.5 -30 0.0
4 -30 0.0
4.5 -30 0.0
5 -30 0.0
6.9457 -30 0.0
8.8914 -30 0.0
12.3514 -30 0.0
15.8114 -30 0.0
21.9642 -30 0.0
28.1171 -30 0.0
39.0585 -30 0.0
50 -30 0.0
0 -31.5 0.0
1 -31.5 0.0
2 -31.5 0.0
3 -31.5 0.0
4 -31.5 0.0
5 -31.5 0.0
8.8914 -31.5 0.0
15.8114 -31.5 0.0
28.1171 -31.5 0.0
50 -31.5 0.0
0 -33 0.0
0.5 -33 0.0
1 -33 0.0
1.5 -33 0.0
2 -33 0.0
2.5 -33 0.0
3 -33 0.0
3.5 -33 0.0
4 -33 0.0
4.5 -33 0.0
5 -33 0.0
6.9457 -33 0.0
8.8914 -33 0.0
12.3514 -33 0.0
15.8114 -33 0.0
21.9642 -33 0.0
28.1171 -33 0.0
39.0585 -33 0.0
50 -33 0.0
0 -34.5 0.0
1 -34.5 0.0
2 -34.5 0.0
3 -34.5 0.0
4 -34.5 0.0
5 -34.5 0.0
8.8914 -34.5 0.0
15.8114 -34.5 0.0
28.1171 -34.5 0.0
50 -34.5 0.0
0 -36 0.0
0.5 -36 0.0
1 -36 0.0
1.5 -36 0.0
2 -36 0.0
2.5 -36 0.0
3 -36 0.0
3.5 -36 0.0
4 -36 0.0
4.5 -36 0.0
5 -36 0.0
6.9457 -36 0.0
8.8914 -36 0.0
12.3514 -36 0.0
15.8114 -36 0.0
21.9642 -36 0.0
28.1171 -36 0.0
39.0585 -36 0.0
50 -36 0.0
0 -37.5 0.0
1 -37.5 0.0
2 -37.5 0.0
3 -37.5 0.0
4 -37.5 0.0
5 -37.5 0.0
8.8914 -37.5 0.0
15.8114 -37.5 0.0
28.1171 -37.5 0.0
50 -37.5 0.0
0 -39 0.0
0.5 -39 0.0
1 -39 0.0
1.5 -39 0.0
2 -39 0.0
2.5 -39 0.0
3 -39 0.0
3.5 -39 0.0
4 -39 0.0
4.5 -39 0.0
5 -39 0.0
6.9457 -39 0.0
8.8914 -39 0.0
12.3514 -39 0.0
15.8114 -39 0.0
21.9642 -39 0.0
28.1171 -39 0.0
39.0585 -39 0.0
50 -39 0.0
0 -40.5 0.0
1 -40.5 0.0
2 -40.5 0.0
3 -40.5 0.0
4 -40.5 0.0
5 -40.5 0.0
8.8914 -40.5 0.0
15.8114 -40.5 0.0
28.1171 -40.5 0.0
50 -40.5 0.0
0 -42 0.0
0.5 -42 0.0
1 -42 0.0
1.5 -42 0.0
2 -42 0.0
2.5 -42 0.0
3 -42 0.0
3.5 -42 0.0
4 -42 0.0
4.5 -42 0.0
5 -42 0.0
6.9457 -42 0.0
8.8914 -42 0.0
12.3514 -42 0.0
15.8114 -42 0.0
21.9642 -42 0.0
28.1171 -42 0.0
39.0585 -42 0.0
50 -42 0.0
0 -43.5 0.0
1 -43.5 0.0
2 -43.5 0.0
3 -43.5 0.0
4 -43.5 0.0
5 -43.5 0.0
8.8914 -43.5 0.0
15.8114 -43.5 0.0
28.1171 -43.5 0.0
50 -43.5 0.0
0 -45 0.0
0.5 -45 0.0
1 -45 0.0
1.5 -45 0.0
2 -45 0.0
2.5 -45 0.0
3 -45 0.0
3.5 -45 0.0
4 -45 0.0
4.5 -45 0.0
5 -45 0.0
6.9457 -45 0.0
8.8914 -45 0.0
12.3514 -45 0.0
15.8114 -45 0.0
21.9642 -45 0.0
28.1171 -45 0.0
39.0585 -45 0.0
50 -45 0.0
0 -50.5 0.0
1 -50.5 0.0
2 -50.5 0.0
3 -50.5 0.0
4 -50.5 0.0
5 -50.5 0.0
8.8914 -50.5 0.0
15.8114 -50.5 0.0
28.1171 -50.5 0.0
50 -50.5 0.0
0 -56 0.0
0.5 -56 0.0
1 -56 0.0
1.5 -56 0.0
2 -56 0.0
2.5 -56 0.0
3 -56 0.0
3.5 -56 0.0
4 -56 0.0
4.5 -56 0.0
5 -56 0.0
6.9457 -56 0.0
8.8914 -56 0.0
12.3514 -56 0.0
15.8114 -56 0.0
21.9642 -56 0.0
28.1171 -56 0.0
39.0585 -56 0.0
50 -56 0.0
0 -61.5 0.0
1 -61.5 0.0
2 -61.5 0.0
3 -61.5 0.0
4 -61.5 0.0
5 -61.5 0.0
8.8914 -61.5 0.0
15.8114 -61.5 0.0
28.1171 -61.5 0.0
[...]
POINT_DATA 889
SCALARS Displacement_R double 1
LOOKUP_TABLE default
9.75771e-07
-3.19296e-05
-7.19004e-05
-0.000180949
-0.000286756
-0.000382835
-0.000462208
-0.000530003
-0.000584859
-0.000615859
-0.00063542
-0.000619303
-0.000493218
-0.000243586
-4.87966e-05
8.9106e-05
0.000123019
9.30388e-05
7.78143e-05
-1.71581e-06
-3.30196e-05
-0.000155419
-0.0002401
-0.000278559
-0.00029295
-0.000306588
-4.0171e-06
0.000118756
7.58664e-05
3.56697e-07
-6.9547e-06
-1.31491e-05
-3.17331e-05
-4.58303e-05
-5.36609e-05
-5.74784e-05
-5.50054e-05
-4.43144e-05
-3.13701e-05
-4.22833e-05
-0.000122429
-0.000125484
-3.46497e-05
4.36695e-05
0.000108496
0.000114819
8.80266e-05
7.374e-05
2.06304e-06
2.15207e-05
5.60662e-05
9.16216e-05
0.000133521
0.000145703
4.34195e-05
9.55588e-05
0.000112312
7.20551e-05
1.45249e-06
3.24657e-05
7.13541e-05
0.000110325
0.000146189
0.000182985
0.000219147
0.000252931
0.00028003
0.000297918
0.000303629
0.000259641
0.000206086
0.000166116
0.000148799
0.000130181
0.000109961
8.26248e-05
7.02794e-05
-1.62874e-06
0.00012531
0.000232648
0.000333138
0.000415169
0.000454552
0.000363747
0.000201681
0.000107833
6.85853e-05
-4.91079e-06
9.78166e-05
0.000177856
0.000248958
0.000317676
0.00038421
0.00044897
0.000506432
0.000553247
0.000588225
0.000610812
0.000603666
0.000520497
0.000363418
0.000253892
0.000152705
0.000105762
7.71471e-05
6.68547e-05
-1.73625e-06
0.000218186
0.000401229
0.000578483
0.000714208
0.000789466
0.000680655
0.000302374
0.000102845
6.49591e-05
2.79958e-06
9.9747e-05
0.000212998
0.000353594
0.000496277
0.000623826
0.000735509
0.000830671
0.000910048
0.000970576
0.00100949
0.000994523
0.000845244
0.000560562
0.000348043
0.000174372
9.99111e-05
7.18099e-05
6.30741e-05
1.00735e-05
0.000135249
0.000446267
0.000706909
0.000887513
0.000995518
0.000891448
0.000398296
0.000104227
6.12402e-05
9.9791e-06
6.9295e-05
0.000171998
0.000311895
0.000454685
0.00057824
0.000687281
0.000783791
0.000863036
0.000926046
0.000974884
0.00101889
0.000922062
0.000668359
0.000442369
0.000214881
0.00010877
6.40941e-05
5.93571e-05
-1.00382e-06
0.00028489
0.0004766
0.000674466
0.000838835
0.00095191
0.000941839
0.000478351
0.000112137
5.70531e-05
-2.79154e-06
0.000152054
0.000285254
0.000395164
0.000483268
0.000571556
0.000659893
0.000740977
0.000813731
0.00087549
0.000925833
0.00100309
0.000950036
0.000734896
0.000508167
0.000246255
0.000115437
5.70293e-05
5.48417e-05
-2.43936e-06
0.000266756
0.000470211
0.000640257
0.000786892
0.000896934
0.000950621
0.000530912
0.000117505
5.23189e-05
-1.25159e-06
0.000126519
0.000246058
0.000351909
0.000447933
0.000536025
0.000616755
0.000690813
0.000757646
0.000816403
0.000866182
0.000962603
0.000942511
0.000766084
0.000547619
0.000267316
0.00011926
5.03635e-05
5.00015e-05
-5.42419e-07
0.000226943
0.000423887
0.000589246
0.000726709
0.000832776
0.000928867
0.000557973
0.000119685
4.74009e-05
-6.99782e-07
0.000106696
0.00021032
0.000308
0.000398921
0.000482958
0.000560117
0.000630535
0.000693774
0.000749771
0.000798069
0.000904903
0.000908364
0.0007668
0.000562464
0.000277312
0.00011961
4.39536e-05
4.50918e-05
-3.48141e-07
0.000195517
0.000374688
0.000530033
0.000659604
0.000761136
0.000883417
0.000561087
0.000118119
4.24941e-05
-3.22952e-07
9.1855e-05
0.000181899
0.000268562
0.000350888
0.000427982
0.00049946
0.000564951
0.000624184
0.000676991
0.000723047
0.000833509
0.000852616
0.000740525
0.000553994
0.000275751
0.000116002
3.7726e-05
4.02475e-05
-2.27261e-07
0.000169028
0.000327609
0.000468537
0.000587842
0.000682959
0.00081775
0.000541314
0.000112417
3.76918e-05
-1.85906e-07
7.88559e-05
0.000156553
0.00023208
0.000304493
0.000373046
0.000437175
0.000496382
0.00055032
0.000598764
0.000641455
0.000749333
0.000777356
0.000689215
0.000522988
0.000262315
0.000108145
3.16655e-05
3.55196e-05
-1.93194e-07
0.000144239
0.000281308
0.000405186
0.000511572
0.000597722
0.000732725
0.000499146
0.000102384
3.30059e-05
-1.84679e-07
6.63398e-05
0.000131767
0.000195797
0.000257663
0.000316666
0.000372223
0.000423826
0.000471145
0.000513895
0.000551862
0.000651141
0.000682289
0.000613292
0.000469625
0.000236807
9.59443e-05
2.58152e-05
3.08798e-05
2.2578e-08
0.000118835
0.000233217
0.000337889
0.000428709
0.000503042
0.000626942
0.000434447
8.80291e-05
2.8363e-05
2.83416e-07
5.24997e-05
0.000105161
0.00015718
0.00020756
0.000255931
0.000301697
0.000344398
0.00038364
0.000419196
0.000450911
0.000535596
0.000564922
0.00051167
0.000393445
0.000199123
7.95142e-05
2.02834e-05
2.62077e-05
-5.77746e-07
9.06318e-05
0.00018014
0.000263218
0.000335357
0.00039459
0.000496784
0.000346452
6.95755e-05
2.35826e-05
-1.29101e-06
3.79594e-05
7.43056e-05
0.000112143
0.000150753
0.000187295
0.000221786
0.000253695
0.000282969
0.000309546
0.000333231
0.000397081
0.000420466
0.00038175
0.000293389
0.000149217
5.91907e-05
1.52551e-05
2.12588e-05
1.74347e-06
5.45798e-05
0.000118997
0.00017652
0.000225662
0.000265847
0.000336207
0.000233902
4.74911e-05
1.83379e-05
7.70657e-06
9.64886e-06
3.29174e-05
6.09596e-05
8.41403e-05
0.000106601
0.000126841
0.000145305
0.000162124
0.000177411
0.000191051
0.000227379
0.000241501
0.000219295
0.000168028
8.70555e-05
3.55767e-05
1.10066e-05
1.56183e-05
-4.31933e-06
1.1401e-05
4.76246e-05
7.13361e-05
9.10119e-05
0.000107204
0.000136274
9.55439e-05
2.26032e-05
1.21176e-05
-3.65517e-07
5.01528e-06
1.42124e-06
3.69114e-06
5.43648e-06
6.83507e-06
8.25978e-06
9.47988e-06
1.06594e-05
1.17042e-05
1.26862e-05
1.56122e-05
1.73475e-05
1.79518e-05
1.63579e-05
1.24217e-05
9.72522e-06
7.90498e-06
8.6716e-06
1.50326e-06
4.43346e-06
6.39391e-06
8.19257e-06
1.00867e-05
1.18918e-05
1.67781e-05
1.69465e-05
1.05965e-05
8.49175e-06
-1.07163e-07
1.01066e-06
2.29739e-06
3.68484e-06
5.0189e-06
6.19013e-06
7.28507e-06
8.26721e-06
9.21494e-06
1.01155e-05
1.09792e-05
1.3856e-05
1.59391e-05
1.74757e-05
1.70225e-05
1.42487e-05
1.12779e-05
8.84888e-06
8.48422e-06
-1.39237e-08
1.59857e-06
4.00011e-06
6.22601e-06
8.21038e-06
9.97644e-06
1.49579e-05
1.68599e-05
1.18694e-05
8.64619e-06
7.46504e-08
9.47595e-07
1.8743e-06
2.76612e-06
3.70132e-06
4.63732e-06
5.56367e-06
6.4912e-06
7.37656e-06
8.23595e-06
9.04945e-06
1.18366e-05
1.39542e-05
1.60375e-05
1.64395e-05
1.47973e-05
1.23069e-05
9.65387e-06
8.89372e-06
-1.2659e-08
1.71599e-06
3.41043e-06
5.10748e-06
6.73917e-06
8.27554e-06
1.29644e-05
1.59091e-05
1.26001e-05
9.15634e-06
2.90181e-09
8.04069e-07
1.59239e-06
2.37893e-06
3.15066e-06
3.92576e-06
4.68923e-06
5.43857e-06
6.17677e-06
6.8906e-06
7.58634e-06
1.00344e-05
1.20356e-05
1.43354e-05
1.52677e-05
1.46239e-05
1.27772e-05
1.03487e-05
9.44978e-06
-1.1852e-10
1.45108e-06
2.89734e-06
4.30608e-06
5.66897e-06
6.96866e-06
1.11626e-05
1.46071e-05
1.28569e-05
9.73328e-06
2.05829e-09
6.68576e-07
1.33587e-06
1.99961e-06
2.66003e-06
3.31232e-06
3.95651e-06
4.59052e-06
5.21135e-06
5.81937e-06
6.41146e-06
8.54651e-06
1.03658e-05
1.26782e-05
1.39159e-05
1.40456e-05
1.28533e-05
1.08932e-05
1.00125e-05
-5.00124e-10
1.23024e-06
2.44657e-06
3.64072e-06
4.79942e-06
5.91166e-06
9.62781e-06
1.32417e-05
1.27895e-05
1.02733e-05
-4.76038e-10
5.67341e-07
1.13278e-06
1.69594e-06
2.25485e-06
2.80899e-06
3.35664e-06
3.89667e-06
4.42834e-06
4.94966e-06
5.46031e-06
7.3245e-06
8.95968e-06
1.11872e-05
1.2578e-05
1.32708e-05
1.26684e-05
1.12699e-05
1.05096e-05
-1.65987e-10
1.04552e-06
2.08266e-06
3.10201e-06
4.0955e-06
5.05542e-06
8.34602e-06
1.19445e-05
1.25128e-05
1.07242e-05
-2.89432e-11
4.8426e-07
9.67621e-07
1.44912e-06
1.92785e-06
2.40274e-06
2.87306e-06
3.33787e-06
3.79625e-06
4.24737e-06
4.69049e-06
6.32524e-06
7.79111e-06
9.89121e-06
1.13401e-05
1.24259e-05
1.23192e-05
1.14826e-05
1.09051e-05
-1.29757e-10
8.97942e-07
1.78934e-06
2.66798e-06
3.52765e-06
4.36258e-06
7.28389e-06
1.07686e-05
1.21076e-05
1.10636e-05
-1.35016e-10
4.17987e-07
8.35201e-07
1.25107e-06
1.66484e-06
2.07587e-06
2.48346e-06
2.88699e-06
3.28586e-06
3.67935e-06
4.06698e-06
5.50874e-06
6.82441e-06
8.78269e-06
1.02326e-05
1.1582e-05
1.18719e-05
1.15478e-05
1.11862e-05
-9.72134e-11
7.78913e-07
1.55307e-06
2.31773e-06
3.06832e-06
3.80051e-06
6.40512e-06
9.72797e-06
1.16286e-05
1.12874e-05
-7.08983e-11
3.64358e-07
7.28177e-07
1.09099e-06
1.45224e-06
1.81145e-06
2.16812e-06
2.52177e-06
2.87193e-06
3.21808e-06
3.55986e-06
4.83947e-06
6.02406e-06
7.84047e-06
9.25862e-06
1.07754e-05
1.1371e-05
1.14888e-05
1.1355e-05
-6.91038e-11
6.82459e-07
1.36133e-06
2.03308e-06
2.69427e-06
3.3417e-06
5.67598e-06
8.81727e-06
1.11118e-05
1.14032e-05
-6.64041e-11
3.20743e-07
6.41068e-07
9.60645e-07
1.27904e-06
1.59589e-06
1.9108e-06
2.22341e-06
2.53333e-06
2.84027e-06
3.14383e-06
4.28809e-06
5.35837e-06
7.0399e-06
8.40802e-06
1.0022e-05
1.08452e-05
1.1331e-05
1.1422e-05
-5.9916e-11
6.03551e-07
1.20444e-06
1.79998e-06
2.38757e-06
2.96452e-06
5.06852e-06
8.02339e-06
1.05802e-05
1.14233e-05
-3.18027e-11
2.84793e-07
5.69274e-07
8.53153e-07
1.13618e-06
1.41801e-06
1.69845e-06
1.97712e-06
2.25387e-06
2.52833e-06
2.80037e-06
3.82869e-06
4.8036e-06
6.35652e-06
7.6663e-06
9.32538e-06
1.03125e-05
1.10991e-05
1.14003e-05
-3.3835e-11
4.68388e-07
9.35292e-07
1.39922e-06
1.85871e-06
2.31238e-06
3.99919e-06
6.54481e-06
9.36893e-06
1.11957e-05
-1.60063e-11
1.95714e-07
3.91311e-07
5.86665e-07
7.8169e-07
9.76214e-07
1.1702e-06
1.36343e-06
1.55591e-06
1.74737e-06
1.93788e-06
2.66645e-06
3.37344e-06
4.55779e-06
5.63926e-06
7.22559e-06
8.44953e-06
9.88902e-06
1.0822e-05
-1.17431e-11
3.31897e-07
6.63181e-07
9.93252e-07
1.32152e-06
1.64745e-06
2.88261e-06
4.87622e-06
7.60006e-06
1.03533e-05
-8.2135e-12
1.4028e-07
2.80509e-07
4.20639e-07
5.6062e-07
7.00395e-07
8.39926e-07
9.79142e-07
1.11802e-06
1.25646e-06
1.39446e-06
1.92727e-06
2.45038e-06
3.35094e-06
4.20667e-06
5.56824e-06
6.75969e-06
8.45431e-06
9.80186e-06
-4.42053e-12
2.34967e-07
4.69672e-07
7.03857e-07
9.37271e-07
1.16968e-06
2.0583e-06
3.56135e-06
5.88968e-06
9.11961e-06
-3.0027e-12
9.55763e-08
1.91136e-07
2.86664e-07
3.82144e-07
4.77555e-07
5.72888e-07
6.68115e-07
7.63234e-07
8.58203e-07
9.53036e-07
1.32158e-06
1.68715e-06
2.31075e-06
2.91585e-06
3.96068e-06
4.93923e-06
6.72196e-06
8.24663e-06
-2.19141e-12
1.46278e-07
2.92476e-07
4.38514e-07
5.84316e-07
7.29814e-07
1.29125e-06
2.28047e-06
3.96217e-06
7.27854e-06
-1.18261e-12
4.96416e-08
9.9275e-08
1.48892e-07
1.98486e-07
2.48048e-07
2.97571e-07
3.47047e-07
3.9647e-07
4.4584e-07
4.95142e-07
6.85915e-07
8.7528e-07
1.20379e-06
1.52841e-06
2.16769e-06
2.8445e-06
3.88884e-06
5.88512e-06
-1.97272e-14
5.07931e-08
1.01545e-07
1.52214e-07
2.02755e-07
2.53101e-07
4.4805e-07
7.774e-07
1.26515e-06
3.60698e-06
0
0
0
0
0
0
0
0
0
0
0
0
0
0
0
0
0
0
0
SCALARS Displacement_Z double 1
LOOKUP_TABLE default
-0.00614074
-0.00613262
-0.00608974
-0.00597057
-0.00583476
-0.00566473
-0.00545102
-0.00519397
-0.00488594
-0.00451543
-0.00402704
-0.00267631
-0.00176427
-0.00073358
-0.000222741
5.53899e-05
4.77304e-05
-1.75511e-05
-6.54353e-05
-0.00614625
-0.00611899
-0.00590126
-0.00549641
-0.00490876
-0.00406423
-0.00175378
-0.000210366
4.82071e-05
-6.50755e-05
-0.00615664
-0.00613913
-0.00611681
-0.00603916
-0.00590175
-0.00571783
-0.00548609
-0.00520821
-0.00488328
-0.00450345
-0.00408529
-0.00271981
-0.00174865
-0.000705671
-0.000201
6.68941e-05
4.86526e-05
-1.72806e-05
-6.4702e-05
-0.00611569
-0.00607556
-0.00585725
-0.00543759
-0.00482791
-0.00408106
-0.00174292
-0.000193916
4.89433e-05
-6.43774e-05
-0.0060459
-0.00603715
-0.00599617
-0.00591403
-0.0057777
-0.00559123
-0.00535792
-0.00507901
-0.00476089
-0.00441491
-0.00405285
-0.0027302
-0.00173889
-0.000693693
-0.000189936
7.22829e-05
4.91522e-05
-1.69797e-05
-6.40052e-05
-0.00593469
-0.00588156
-0.00567123
-0.00525633
-0.00467811
-0.00400557
-0.0017338
-0.000187964
4.92871e-05
-6.35698e-05
-0.00575628
-0.0057579
-0.00573564
-0.00566716
-0.00553969
-0.00535789
-0.00513265
-0.00487107
-0.00457876
-0.00426434
-0.00393726
-0.00269136
-0.00172891
-0.000693317
-0.000189148
7.12545e-05
4.93361e-05
-1.67683e-05
-6.30847e-05
-0.00555214
-0.00555697
-0.00537869
-0.00498348
-0.00445804
-0.003853
-0.00172245
-0.000192327
4.92008e-05
-6.25909e-05
-0.00535878
-0.00532901
-0.00534852
-0.00530202
-0.00517197
-0.00500558
-0.00480125
-0.00456686
-0.00430776
-0.00403193
-0.00375041
-0.00261059
-0.00171817
-0.000705346
-0.000198486
6.41858e-05
4.89891e-05
-1.65962e-05
-6.20577e-05
-0.00517725
-0.00513683
-0.00480534
-0.00446198
-0.00402099
-0.00352569
-0.0016642
-0.000198744
4.6805e-05
-6.16769e-05
-0.00504573
-0.00505037
-0.00493097
-0.00460571
-0.00445355
-0.00430085
-0.00413614
-0.00394983
-0.00374467
-0.00352687
-0.00329946
-0.00237355
-0.00160293
-0.000683491
-0.000199594
5.27121e-05
4.40071e-05
-1.6662e-05
-6.10241e-05
-0.00468224
-0.00451042
-0.00412109
-0.00382849
-0.00347853
-0.00308093
-0.00153748
-0.000200042
4.08528e-05
-6.01759e-05
-0.00425135
-0.00421033
-0.00409844
-0.00395416
-0.0038072
-0.00367705
-0.00353792
-0.0033861
-0.00322285
-0.00304789
-0.00286511
-0.002117
-0.00146612
-0.000648836
-0.000200501
3.85865e-05
3.71604e-05
-1.73255e-05
-5.91079e-05
-0.00383663
-0.00373362
-0.00350859
-0.00326
-0.00297634
-0.00265708
-0.00139172
-0.000200237
3.31878e-05
-5.78991e-05
-0.00347103
-0.00344794
-0.0033923
-0.00331124
-0.00321523
-0.00310885
-0.0029946
-0.00287155
-0.00273968
-0.00259978
-0.0024535
-0.0018529
-0.00131306
-0.000602873
-0.000199556
2.29997e-05
2.87743e-05
-1.85035e-05
-5.65157e-05
-0.00313225
-0.00307541
-0.00293171
-0.00273909
-0.00251161
-0.00225701
-0.00123273
-0.000198023
2.4172e-05
-5.50227e-05
-0.00282376
-0.00281141
-0.00277854
-0.00272688
-0.00266009
-0.00258161
-0.00249328
-0.00239651
-0.00229227
-0.00218155
-0.00206577
-0.00158905
-0.00114972
-0.000547666
-0.0001958
6.95684e-06
1.92473e-05
-2.00854e-05
-5.34e-05
-0.00253636
-0.00250025
-0.00240168
-0.00225754
-0.00208085
-0.00188117
-0.00106632
-0.000192714
1.42303e-05
-5.16886e-05
-0.00226846
-0.00226067
-0.00223868
-0.00220314
-0.00215579
-0.00209812
-0.00203171
-0.00195784
-0.00187764
-0.00179203
-0.00170226
-0.00133082
-0.000981658
-0.000485576
-0.000188779
-8.68574e-06
9.02579e-06
-2.19369e-05
-4.98934e-05
-0.00201686
-0.00199221
-0.0019223
-0.00181597
-0.00168241
-0.00152989
-0.000897713
-0.000184045
3.82762e-06
-4.80264e-05
-0.00178069
-0.00177535
-0.00175994
-0.00173482
-0.00170088
-0.00165898
-0.00161015
-0.00155532
-0.0014954
-0.0014312
-0.00136366
-0.00108237
-0.000813742
-0.000419032
-0.000178376
-2.31729e-05
-1.4122e-06
-2.39079e-05
-4.6124e-05
-0.00155842
-0.00154099
-0.00149118
-0.0014143
-0.00131659
-0.00120418
-0.000731445
-0.000172012
-6.54477e-06
-4.41663e-05
-0.0013497
-0.00134588
-0.00133504
-0.00131717
-0.00129304
-0.00126324
-0.00122842
-0.00118921
-0.00114623
-0.00110009
-0.00105142
-0.000847427
-0.000650237
-0.000350383
-0.000164652
-3.57972e-05
-1.15672e-05
-2.58416e-05
-4.22254e-05
-0.00115402
-0.00114164
-0.00110634
-0.0010526
-0.00098446
-0.00090588
-0.000571555
-0.000156703
-1.63785e-05
-4.02484e-05
-0.0009725
-0.000969471
-0.00096087
-0.000948146
-0.000931195
-0.000910641
-0.000887021
-0.000860551
-0.000831663
-0.00080064
-0.000767865
-0.000629669
-0.00049498
-0.000281802
-0.000147681
-4.58416e-05
-2.09255e-05
-2.7584e-05
-3.83461e-05
-0.000804739
-0.000793645
-0.000767694
-0.000731908
-0.000688199
-0.000637901
-0.000421724
-0.000138142
-2.51524e-05
-3.64321e-05
-0.00065106
-0.000647712
-0.000640836
-0.000628806
-0.000615854
-0.000602667
-0.000587932
-0.000572006
-0.000554706
-0.000536213
-0.00051663
-0.000433171
-0.000351515
-0.000215195
-0.000127396
-5.25213e-05
-2.89605e-05
-2.89964e-05
-3.46601e-05
-0.000520015
-0.000502042
-0.00047691
-0.000455756
-0.000431903
-0.00040464
-0.000285413
-0.000116138
-3.2327e-05
-3.29074e-05
-0.000423085
-0.000400257
-0.000375469
-0.000359944
-0.000351542
-0.000343564
-0.000336418
-0.000328827
-0.000320739
-0.000312085
-0.000303046
-0.000262808
-0.00022322
-0.000152062
-0.000103445
-5.49344e-05
-3.51221e-05
-2.99709e-05
-3.13783e-05
-0.000343388
-0.000257735
-0.000239382
-0.000231259
-0.000222429
-0.000212311
-0.000166085
-9.01569e-05
-3.73143e-05
-2.98986e-05
-0.000295321
-0.000258079
-0.000153045
-0.000148055
-0.00014517
-0.000143474
-0.000141907
-0.000140201
-0.000138378
-0.000136402
-0.000134279
-0.000124625
-0.000113664
-9.31866e-05
-7.50658e-05
-5.2043e-05
-3.87861e-05
-3.04592e-05
-2.87451e-05
-0.000149585
-0.000135111
-0.000132984
-0.000130479
-0.000127634
-0.000124259
-0.000107003
-7.31815e-05
-3.88243e-05
-2.83667e-05
-0.000116231
-0.000117094
-0.000120121
-0.000121677
-0.000121688
-0.000121141
-0.000120281
-0.000119219
-0.000118002
-0.000116656
-0.000115185
-0.000108489
-0.000100619
-8.53794e-05
-7.10636e-05
-5.11476e-05
-3.88147e-05
-3.02866e-05
-2.80483e-05
-0.000111641
-0.000111563
-0.00011186
-0.000110956
-0.000109217
-0.000106924
-9.46642e-05
-6.88392e-05
-3.87275e-05
-2.77484e-05
-0.000103736
-0.000104183
-0.00010411
-0.000103791
-0.000103628
-0.000103227
-0.000102696
-0.000102056
-0.000101284
-0.000100407
-9.94246e-05
-9.47284e-05
-8.90593e-05
-7.77132e-05
-6.64818e-05
-4.97177e-05
-3.85641e-05
-3.01077e-05
-2.74802e-05
-9.67808e-05
-9.67756e-05
-9.62727e-05
-9.54202e-05
-9.42024e-05
-9.2628e-05
-8.3859e-05
-6.41352e-05
-3.83286e-05
-2.72182e-05
-9.03277e-05
-9.01878e-05
-9.00774e-05
-8.99217e-05
-8.96323e-05
-8.92978e-05
-8.88886e-05
-8.83959e-05
-8.78346e-05
-8.71969e-05
-8.64908e-05
-8.31292e-05
-7.90082e-05
-7.05016e-05
-6.17359e-05
-4.78399e-05
-3.80054e-05
-2.98353e-05
-2.69758e-05
-8.41799e-05
-8.40252e-05
-8.36368e-05
-8.29816e-05
-8.20714e-05
-8.09175e-05
-7.45065e-05
-5.93924e-05
-3.76149e-05
-2.67395e-05
-7.86283e-05
-7.86215e-05
-7.85329e-05
-7.83836e-05
-7.81905e-05
-7.7934e-05
-7.76232e-05
-7.72573e-05
-7.68379e-05
-7.63679e-05
-7.58481e-05
-7.33783e-05
-7.03247e-05
-6.38951e-05
-5.705e-05
-4.56489e-05
-3.714e-05
-2.94248e-05
-2.65111e-05
-7.36226e-05
-7.35299e-05
-7.32327e-05
-7.27432e-05
-7.20671e-05
-7.12119e-05
-6.64379e-05
-5.47866e-05
-3.66061e-05
-2.62838e-05
-6.90574e-05
-6.90302e-05
-6.89664e-05
-6.88608e-05
-6.87106e-05
-6.85198e-05
-6.82879e-05
-6.80151e-05
-6.77032e-05
-6.73528e-05
-6.69652e-05
-6.51212e-05
-6.28254e-05
-5.7919e-05
-5.25568e-05
-4.32629e-05
-3.59991e-05
-2.88627e-05
-2.60539e-05
-6.48688e-05
-6.47933e-05
-6.45719e-05
-6.42056e-05
-6.3699e-05
-6.30583e-05
-5.94562e-05
-5.04137e-05
-3.53442e-05
-2.58184e-05
-6.10275e-05
-6.10125e-05
-6.09642e-05
-6.08835e-05
-6.07718e-05
-6.0628e-05
-6.04536e-05
-6.02483e-05
-6.00134e-05
-5.97491e-05
-5.94566e-05
-5.80628e-05
-5.63162e-05
-5.25382e-05
-4.83207e-05
-4.07731e-05
-3.46308e-05
-2.81534e-05
-2.55718e-05
-5.74935e-05
-5.74378e-05
-5.72702e-05
-5.69932e-05
-5.66098e-05
-5.61242e-05
-5.3376e-05
-4.63133e-05
-3.38812e-05
-2.53134e-05
-5.42295e-05
-5.42169e-05
-5.41803e-05
-5.41193e-05
-5.40342e-05
-5.3925e-05
-5.37923e-05
-5.36362e-05
-5.34574e-05
-5.32561e-05
-5.3033e-05
-5.19679e-05
-5.06256e-05
-4.7693e-05
-4.43624e-05
-3.82455e-05
-3.30876e-05
-2.73107e-05
-2.50378e-05
-5.12037e-05
-5.11608e-05
-5.1033e-05
-5.08214e-05
-5.05282e-05
-5.01563e-05
-4.80393e-05
-4.24914e-05
-3.22686e-05
-2.47455e-05
-4.8391e-05
-4.83816e-05
-4.83535e-05
-4.83066e-05
-4.82414e-05
-4.81576e-05
-4.80557e-05
-4.79358e-05
-4.77984e-05
-4.76435e-05
-4.74719e-05
-4.66503e-05
-4.56097e-05
-4.33174e-05
-4.06776e-05
-3.5726e-05
-3.14186e-05
-2.6352e-05
-2.44323e-05
-4.57675e-05
-4.57346e-05
-4.56361e-05
-4.54729e-05
-4.52466e-05
-4.49593e-05
-4.33155e-05
-3.89359e-05
-3.05521e-05
-2.40996e-05
-4.33135e-05
-4.33063e-05
-4.32845e-05
-4.32484e-05
-4.31978e-05
-4.31331e-05
-4.30542e-05
-4.29614e-05
-4.28548e-05
-4.27346e-05
-4.2601e-05
-4.19631e-05
-4.11509e-05
-3.93481e-05
-3.72493e-05
-3.32453e-05
-2.96654e-05
-2.52959e-05
-2.37442e-05
-4.1011e-05
-4.09853e-05
-4.09088e-05
-4.07821e-05
-4.06063e-05
-4.03828e-05
-3.90992e-05
-3.56262e-05
-2.87691e-05
-2.33683e-05
-3.88447e-05
-3.88387e-05
-3.88219e-05
-3.87934e-05
-3.87542e-05
-3.87035e-05
-3.86422e-05
-3.85696e-05
-3.84868e-05
-3.83932e-05
-3.82896e-05
-3.77887e-05
-3.71551e-05
-3.57282e-05
-3.40546e-05
-3.08235e-05
-2.78606e-05
-2.41594e-05
-2.29696e-05
-3.1851e-05
-3.18367e-05
-3.17934e-05
-3.17215e-05
-3.16216e-05
-3.14941e-05