# vtk DataFile Version 2.0
./vtk
ASCII

DATASET UNSTRUCTURED_GRID
POINTS 889 double
0 0 0.0
0.5 0 0.0
1 0 0.0
1.5 0 0.0
2 0 0.0
2.5 0 0.0
3 0 0.0
3.5 0 0.0
4 0 0.0
4.5 0 0.0
5 0 0.0
6.9457 0 0.0
8.8914 0 0.0
12.3514 0 0.0
15.8114 0 0.0
21.9642 0 0.0
28.1171 0 0.0
39.0585 0 0.0
50 0 0.0
0 -0.5 0.0
1 -0.5 0.0
2 -0.5 0.0
3 -0.5 0.0
4 -0.5 0.0
5 -0.5 0.0
8.8914 -0.5 0.0
15.8114 -0.5 0.0
28.1171 -0.5 0.0
50 -0.5 0.0
0 -1 0.0
0.5 -1 0.0
1 -1 0.0
1.5 -1 0.0
2 -1 0.0
2.5 -1 0.0
3 -1 0.0
3.5 -1 0.0
4 -1 0.0
4.5 -1 0.0
5 -1 0.0
6.9457 -1 0.0
8.8914 -1 0.0
12.3514 -1 0.0
15.8114 -1 0.0
21.9642 -1 0.0
28.1171 -1 0.0
39.0585 -1 0.0
50 -1 0.0
0 -1.5 0.0
1 -1.5 0.0
2 -1.5 0.0
3 -1.5 0.0
4 -1.5 0.0
5 -1.5 0.0
8.8914 -1.5 0.0
15.8114 -1.5 0.0
28.1171 -1.5 0.0
50 -1.5 0.0
0 -2 0.0
0.5 -2 0.0
1 -2 0.0
1.5 -2 0.0
2 -2 0.0
2.5 -2 0.0
3 -2 0.0
3.5 -2 0.0
4 -2 0.0
4.5 -2 0.0
5 -2 0.0
6.9457 -2 0.0
8.8914 -2 0.0
12.3514 -2 0.0
15.8114 -2 0.0
21.9642 -2 0.0
28.1171 -2 0.0
39.0585 -2 0.0
50 -2 0.0
0 -2.5 0.0
1 -2.5 0.0
2 -2.5 0.0
3 -2.5 0.0
4 -2.5 0.0
5 -2.5 0.0
8.8914 -2.5 0.0
15.8114 -2.5 0.0
28.1171 -2.5 0.0
50 -2.5 0.0
0 -3 0.0
0.5 -3 0.0
1 -3 0.0
1.5 -3 0.0
2 -3 0.0
2.5 -3 0.0
3 -3 0.0
3.5 -3 0.0
4 -3 0.0
4.5 -3 0.0
5 -3 0.0
6.9457 -3 0.0
8.8914 -3 0.0
12.3514 -3 0.0
15.8114 -3 0.0
21.9642 -3 0.0
28.1171 -3 0.0
39.0585 -3 0.0
50 -3 0.0
0 -3.5 0.0
1 -3.5 0.0
2 -3.5 0.0
3 -3.5 0.0
4 -3.5 0.0
5 -3.5 0.0
8.8914 -3.5 0.0
15.8114 -3.5 0.0
28.1171 -3.5 0.0
50 -3.5 0.0
0 -4 0.0
0.5 -4 0.0
1 -4 0.0
1.5 -4 0.0
2 -4 0.0
2.5 -4 0.0
3 -4 0.0
3.5 -4 0.0
4 -4 0.0
4.5 -4 0.0
5 -4 0.0
6.9457 -4 0.0
8.8914 -4 0.0
12.3514 -4 0.0
15.8114 -4 0.0
21.9642 -4 0.0
28.1171 -4 0.0
39.0585 -4 0.0
50 -4 0.0
0 -4.5 0.0
1 -4.5 0.0
2 -4.5 0.0
3 -4.5 0.0
4 -4.5 0.0
5 -4.5 0.0
8.8914 -4.5 0.0
15.8114 -4.5 0.0
28.1171 -4.5 0.0
50 -4.5 0.0
0 -5 0.0
0.5 -5 0.0
1 -5 0.0
1.5 -5 0.0
2 -5 0.0
2.5 -5 0.0
3 -5 0.0
3.5 -5 0.0
4 -5 0.0
4.5 -5 0.0
5 -5 0.0
6.9457 -5 0.0
8.8914 -5 0.0
12.3514 -5 0.0
15.8114 -5 0.0
21.9642 -5 0.0
28.1171 -5 0.0
39.0585 -5 0.0
50 -5 0.0
0 -5.5 0.0
1 -5.5 0.0
2 -5.5 0.0
3 -5.5 0.0
4 -5.5 0.0
5 -5.5 0.0
8.8914 -5.5 0.0
15.8114 -5.5 0.0
28.1171 -5.5 0.0
50 -5.5 0.0
0 -6 0.0
0.5 -6 0.0
1 -6 0.0
1.5 -6 0.0
2 -6 0.0
2.5 -6 0.0
3 -6 0.0
3.5 -6 0.0
4 -6 0.0
4.5 -6 0.0
5 -6 0.0
6.9457 -6 0.0
8.8914 -6 0.0
12.3514 -6 0.0
15.8114 -6 0.0
21.9642 -6 0.0
28.1171 -6 0.0
39.0585 -6 0.0
50 -6 0.0
0 -6.5 0.0
1 -6.5 0.0
2 -6.5 0.0
3 -6.5 0.0
4 -6.5 0.0
5 -6.5 0.0
8.8914 -6.5 0.0
15.8114 -6.5 0.0
28.1171 -6.5 0.0
50 -6.5 0.0
0 -7 0.0
0.5 -7 0.0
1 -7 0.0
1.5 -7 0.0
2 -7 0.0
2.5 -7 0.0
3 -7 0.0
3.5 -7 0.0
4 -7 0.0
4.5 -7 0.0
5 -7 0.0
6.9457 -7 0.0
8.8914 -7 0.0
12.3514 -7 0.0
15.8114 -7 0.0
21.9642 -7 0.0
28.1171 -7 0.0
39.0585 -7 0.0
50 -7 0.0
0 -7.5 0.0
1 -7.5 0.0
2 -7.5 0.0
3 -7.5 0.0
4 -7.5 0.0
5 -7.5 0.0
8.8914 -7.5 0.0
15.8114 -7.5 0.0
28.1171 -7.5 0.0
50 -7.5 0.0
0 -8 0.0
0.5 -8 0.0
1 -8 0.0
1.5 -8 0.0
2 -8 0.0
2.5 -8 0.0
3 -8 0.0
3.5 -8 0.0
4 -8 0.0
4.5 -8 0.0
5 -8 0.0
6.9457 -8 0.0
8.8914 -8 0.0
12.3514 -8 0.0
15.8114 -8 0.0
21.9642 -8 0.0
28.1171 -8 0.0
39.0585 -8 0.0
50 -8 0.0
0 -8.5 0.0
1 -8.5 0.0
2 -8.5 0.0
3 -8.5 0.0
4 -8.5 0.0
5 -8.5 0.0
8.8914 -8.5 0.0
15.8114 -8.5 0.0
28.1171 -8.5 0.0
50 -8.5 0.0
0 -9 0.0
0.5 -9 0.0
1 -9 0.0
1.5 -9 0.0
2 -9 0.0
2.5 -9 0.0
3 -9 0.0
3.5 -9 0.0
4 -9 0.0
4.5 -9 0.0
5 -9 0.0
6.9457 -9 0.0
8.8914 -9 0.0
12.3514 -9 0.0
15.8114 -9 0.0
21.9642 -9 0.0
28.1171 -9 0.0
39.0585 -9 0.0
50 -9 0.0
0 -9.5 0.0
1 -9.5 0.0
2 -9.5 0.0
3 -9.5 0.0
4 -9.5 0.0
5 -9.5 0.0
8.8914 -9.5 0.0
15.8114 -9.5 0.0
28.1171 -9.5 0.0
50 -9.5 0.0
0 -10 0.0
0.5 -10 0.0
1 -10 0.0
1.5 -10 0.0
2 -10 0.0
2.5 -10 0.0
3 -10 0.0
3.5 -10 0.0
4 -10 0.0
4.5 -10 0.0
5 -10 0.0
6.9457 -10 0.0
8.8914 -10 0.0
12.3514 -10 0.0
15.8114 -10 0.0
21.9642 -10 0.0
28.1171 -10 0.0
39.0585 -10 0.0
50 -10 0.0
0 -10.5 0.0
1 -10.5 0.0
2 -10.5 0.0
3 -10.5 0.0
4 -10.5 0.0
5 -10.5 0.0
8.8914 -10.5 0.0
15.8114 -10.5 0.0
28.1171 -10.5 0.0
50 -10.5 0.0
0 -11 0.0
0.5 -11 0.0
1 -11 0.0
1.5 -11 0.0
2 -11 0.0
2.5 -11 0.0
3 -11 0.0
3.5 -11 0.0
4 -11 0.0
4.5 -11 0.0
5 -11 0.0
6.9457 -11 0.0
8.8914 -11 0.0
12.3514 -11 0.0
15.8114 -11 0.0
21.9642 -11 0.0
28.1171 -11 0.0
39.0585 -11 0.0
50 -11 0.0
0 -11.5 0.0
1 -11.5 0.0
2 -11.5 0.0
3 -11.5 0.0
4 -11.5 0.0
5 -11.5 0.0
8.8914 -11.5 0.0
15.8114 -11.5 0.0
28.1171 -11.5 0.0
50 -11.5 0.0
0 -12 0.0
0.5 -12 0.0
1 -12 0.0
1.5 -12 0.0
2 -12 0.0
2.5 -12 0.0
3 -12 0.0
3.5 -12 0.0
4 -12 0.0
4.5 -12 0.0
5 -12 0.0
6.9457 -12 0.0
8.8914 -12 0.0
12.3514 -12 0.0
15.8114 -12 0.0
21.9642 -12 0.0
28.1171 -12 0.0
39.0585 -12 0.0
50 -12 0.0
0 -12.5 0.0
1 -12.5 0.0
2 -12.5 0.0
3 -12.5 0.0
4 -12.5 0.0
5 -12.5 0.0
8.8914 -12.5 0.0
15.8114 -12.5 0.0
28.1171 -12.5 0.0
50 -12.5 0.0
0 -13 0.0
0.5 -13 0.0
1 -13 0.0
1.5 -13 0.0
2 -13 0.0
2.5 -13 0.0
3 -13 0.0
3.5 -13 0.0
4 -13 0.0
4.5 -13 0.0
5 -13 0.0
6.9457 -13 0.0
8.8914 -13 0.0
12.3514 -13 0.0
15.8114 -13 0.0
21.9642 -13 0.0
28.1171 -13 0.0
39.0585 -13 0.0
50 -13 0.0
0 -13.5 0.0
1 -13.5 0.0
2 -13.5 0.0
3 -13.5 0.0
4 -13.5 0.0
5 -13.5 0.0
8.8914 -13.5 0.0
15.8114 -13.5 0.0
28.1171 -13.5 0.0
50 -13.5 0.0
0 -14 0.0
0.5 -14 0.0
1 -14 0.0
1.5 -14 0.0
2 -14 0.0
2.5 -14 0.0
3 -14 0.0
3.5 -14 0.0
4 -14 0.0
4.5 -14 0.0
5 -14 0.0
6.9457 -14 0.0
8.8914 -14 0.0
12.3514 -14 0.0
15.8114 -14 0.0
21.9642 -14 0.0
28.1171 -14 0.0
39.0585 -14 0.0
50 -14 0.0
0 -14.5 0.0
1 -14.5 0.0
2 -14.5 0.0
3 -14.5 0.0
4 -14.5 0.0
5 -14.5 0.0
8.8914 -14.5 0.0
15.8114 -14.5 0.0
28.1171 -14.5 0.0
50 -14.5 0.0
0 -15 0.0
0.5 -15 0.0
1 -15 0.0
1.5 -15 0.0
2 -15 0.0
2.5 -15 0.0
3 -15 0.0
3.5 -15 0.0
4 -15 0.0
4.5 -15 0.0
5 -15 0.0
6.9457 -15 0.0
8.8914 -15 0.0
12.3514 -15 0.0
15.8114 -15 0.0
21.9642 -15 0.0
28.1171 -15 0.0
39.0585 -15 0.0
50 -15 0.0
0 -16.5 0.0
1 -16.5 0.0
2 -16.5 0.0
3 -16.5 0.0
4 -16.5 0.0
5 -16.5 0.0
8.8914 -16.5 0.0
15.8114 -16.5 0.0
28.1171 -16.5 0.0
50 -16.5 0.0
0 -18 0.0
0.5 -18 0.0
1 -18 0.0
1.5 -18 0.0
2 -18 0.0
2.5 -18 0.0
3 -18 0.0
3.5 -18 0.0
4 -18 0.0
4.5 -18 0.0
5 -18 0.0
6.9457 -18 0.0
8.8914 -18 0.0
12.3514 -18 0.0
15.8114 -18 0.0
21.9642 -18 0.0
28.1171 -18 0.0
39.0585 -18 0.0
50 -18 0.0
0 -19.5 0.0
1 -19.5 0.0
2 -19.5 0.0
3 -19.5 0.0
4 -19.5 0.0
5 -19.5 0.0
8.8914 -19.5 0.0
15.8114 -19.5 0.0
28.1171 -19.5 0.0
50 -19.5 0.0
0 -21 0.0
0.5 -21 0.0
1 -21 0.0
1.5 -21 0.0
2 -21 0.0
2.5 -21 0.0
3 -21 0.0
3.5 -21 0.0
4 -21 0.0
4.5 -21 0.0
5 -21 0.0
6.9457 -21 0.0
8.8914 -21 0.0
12.3514 -21 0.0
15.8114 -21 0.0
21.9642 -21 0.0
28.1171 -21 0.0
39.0585 -21 0.0
50 -21 0.0
0 -22.5 0.0
1 -22.5 0.0
2 -22.5 0.0
3 -22.5 0.0
4 -22.5 0.0
5 -22.5 0.0
8.8914 -22.5 0.0
15.8114 -22.5 0.0
28.1171 -22.5 0.0
50 -22.5 0.0
0 -24 0.0
0.5 -24 0.0
1 -24 0.0
1.5 -24 0.0
2 -24 0.0
2.5 -24 0.0
3 -24 0.0
3.5 -24 0.0
4 -24 0.0
4.5 -24 0.0
5 -24 0.0
6.9457 -24 0.0
8.8914 -24 0.0
12.3514 -24 0.0
15.8114 -24 0.0
21.9642 -24 0.0
28.1171 -24 0.0
39.0585 -24 0.0
50 -24 0.0
0 -25.5 0.0
1 -25.5 0.0
2 -25.5 0.0
3 -25.5 0.0
4 -25.5 0.0
5 -25.5 0.0
8.8914 -25.5 0.0
15.8114 -25.5 0.0
28.1171 -25.5 0.0
50 -25.5 0.0
0 -27 0.0
0.5 -27 0.0
1 -27 0.0
1.5 -27 0.0
2 -27 0.0
2.5 -27 0.0
3 -27 0.0
3.5 -27 0.0
4 -27 0.0
4.5 -27 0.0
5 -27 0.0
6.9457 -27 0.0
8.8914 -27 0.0
12.3514 -27 0.0
15.8114 -27 0.0
21.9642 -27 0.0
28.1171 -27 0.0
39.0585 -27 0.0
50 -27 0.0
0 -28.5 0.0
1 -28.5 0.0
2 -28.5 0.0
3 -28.5 0.0
4 -28.5 0.0
5 -28.5 0.0
8.8914 -28.5 0.0
15.8114 -28.5 0.0
28.1171 -28.5 0.0
50 -28.5 0.0
0 -30 0.0
0.5 -30 0.0
1 -30 0.0
1.5 -30 0.0
2 -30 0.0
2.5 -30 0.0
3 -30 0.0
3.5 -30 0.0
4 -30 0.0
4.5 -30 0.0
5 -30 0.0
6.9457 -30 0.0
8.8914 -30 0.0
12.3514 -30 0.0
15.8114 -30 0.0
21.9642 -30 0.0
28.1171 -30 0.0
39.0585 -30 0.0
50 -30 0.0
0 -31.5 0.0
1 -31.5 0.0
2 -31.5 0.0
3 -31.5 0.0
4 -31.5 0.0
5 -31.5 0.0
8.8914 -31.5 0.0
15.8114 -31.5 0.0
28.1171 -31.5 0.0
50 -31.5 0.0
0 -33 0.0
0.5 -33 0.0
1 -33 0.0
1.5 -33 0.0
2 -33 0.0
2.5 -33 0.0
3 -33 0.0
3.5 -33 0.0
4 -33 0.0
4.5 -33 0.0
5 -33 0.0
6.9457 -33 0.0
8.8914 -33 0.0
12.3514 -33 0.0
15.8114 -33 0.0
21.9642 -33 0.0
28.1171 -33 0.0
39.0585 -33 0.0
50 -33 0.0
0 -34.5 0.0
1 -34.5 0.0
2 -34.5 0.0
3 -34.5 0.0
4 -34.5 0.0
5 -34.5 0.0
8.8914 -34.5 0.0
15.8114 -34.5 0.0
28.1171 -34.5 0.0
50 -34.5 0.0
0 -36 0.0
0.5 -36 0.0
1 -36 0.0
1.5 -36 0.0
2 -36 0.0
2.5 -36 0.0
3 -36 0.0
3.5 -36 0.0
4 -36 0.0
4.5 -36 0.0
5 -36 0.0
6.9457 -36 0.0
8.8914 -36 0.0
12.3514 -36 0.0
15.8114 -36 0.0
21.9642 -36 0.0
28.1171 -36 0.0
39.0585 -36 0.0
50 -36 0.0
0 -37.5 0.0
1 -37.5 0.0
2 -37.5 0.0
3 -37.5 0.0
4 -37.5 0.0
5 -37.5 0.0
8.8914 -37.5 0.0
15.8114 -37.5 0.0
28.1171 -37.5 0.0
50 -37.5 0.0
0 -39 0.0
0.5 -39 0.0
1 -39 0.0
1.5 -39 0.0
2 -39 0.0
2.5 -39 0.0
3 -39 0.0
3.5 -39 0.0
4 -39 0.0
4.5 -39 0.0
5 -39 0.0
6.9457 -39 0.0
8.8914 -39 0.0
12.3514 -39 0.0
15.8114 -39 0.0
21.9642 -39 0.0
28.1171 -39 0.0
39.0585 -39 0.0
50 -39 0.0
0 -40.5 0.0
1 -40.5 0.0
2 -40.5 0.0
3 -40.5 0.0
4 -40.5 0.0
5 -40.5 0.0
8.8914 -40.5 0.0
15.8114 -40.5 0.0
28.1171 -40.5 0.0
50 -40.5 0.0
0 -42 0.0
0.5 -42 0.0
1 -42 0.0
1.5 -42 0.0
2 -42 0.0
2.5 -42 0.0
3 -42 0.0
3.5 -42 0.0
4 -42 0.0
4.5 -42 0.0
5 -42 0.0
6.9457 -42 0.0
8.8914 -42 0.0
12.3514 -42 0.0
15.8114 -42 0.0
21.9642 -42 0.0
28.1171 -42 0.0
39.0585 -42 0.0
50 -42 0.0
0 -43.5 0.0
1 -43.5 0.0
2 -43.5 0.0
3 -43.5 0.0
4 -43.5 0.0
5 -43.5 0.0
8.8914 -43.5 0.0
15.8114 -43.5 0.0
28.1171 -43.5 0.0
50 -43.5 0.0
0 -45 0.0
0.5 -45 0.0
1 -45 0.0
1.5 -45 0.0
2 -45 0.0
2.5 -45 0.0
3 -45 0.0
3.5 -45 0.0
4 -45 0.0
4.5 -45 0.0
5 -45 0.0
6.9457 -45 0.0
8.8914 -45 0.0
12.3514 -45 0.0
15.8114 -45 0.0
21.9642 -45 0.0
28.1171 -45 0.0
39.0585 -45 0.0
50 -45 0.0
0 -50.5 0.0
1 -50.5 0.0
2 -50.5 0.0
3 -50.5 0.0
4 -50.5 0.0
5 -50.5 0.0
8.8914 -50.5 0.0
15.8114 -50.5 0.0
28.1171 -50.5 0.0
50 -50.5 0.0
0 -56 0.0
0.5 -56 0.0
1 -56 0.0
1.5 -56 0.0
2 -56 0.0
2.5 -56 0.0
3 -56 0.0
3.5 -56 0.0
4 -56 0.0
4.5 -56 0.0
5 -56 0.0
6.9457 -56 0.0
8.8914 -56 0.0
12.3514 -56 0.0
15.8114 -56 0.0
21.9642 -56 0.0
28.1171 -56 0.0
39.0585 -56 0.0
50 -56 0.0
0 -61.5 0.0
1 -61.5 0.0
2 -61.5 0.0
3 -61.5 0.0
4 -61.5 0.0
5 -61.5 0.0
8.8914 -61.5 0.0
15.8114 -61.5 0.0
28.1171 -61.5 0.0
[...]
POINT_DATA 889
SCALARS Displacement_R double 1
LOOKUP_TABLE default
0
-6.45945e-05
-0.000129236
-0.000193905
-0.000258052
-0.00032348
-0.000388686
-0.000460114
-0.000523922
-0.000568012
-0.000586664
-0.000477662
-0.000338659
-0.000248768
-0.000180054
-0.000120983
-7.63774e-05
-3.34962e-05
0
0
-8.32477e-05
-0.000162252
-0.000230165
-0.000265501
-0.000276475
-0.000271006
-0.000158515
-7.09871e-05
0
0
-2.07996e-05
-4.06041e-05
-5.90076e-05
-7.43415e-05
-8.54528e-05
-8.96454e-05
-8.94027e-05
-8.15862e-05
-6.36851e-05
-7.24262e-05
-0.000167362
-0.000195877
-0.000167989
-0.000138314
-9.73678e-05
-6.54443e-05
-2.88464e-05
0
0
-4.23382e-06
-9.14883e-07
1.65586e-05
4.76827e-05
5.02261e-05
-0.000125059
-0.000116333
-5.96033e-05
0
0
1.21122e-05
2.50422e-05
3.90614e-05
5.51522e-05
7.38423e-05
9.41349e-05
0.000114554
0.000130405
0.000135991
0.000129988
3.0476e-05
-5.95345e-05
-9.54372e-05
-9.44793e-05
-7.50659e-05
-5.38114e-05
-2.43742e-05
0
0
4.64754e-05
9.55587e-05
0.000145451
0.000183443
0.000186088
-2.94562e-06
-7.38949e-05
-4.79745e-05
0
0
3.06231e-05
6.12516e-05
9.19067e-05
0.00012206
0.000151354
0.000177814
0.000200479
0.00021625
0.000223051
0.000220381
0.00014249
4.61442e-05
-3.07937e-05
-5.35178e-05
-5.37264e-05
-4.22208e-05
-2.00256e-05
0
0
7.04281e-05
0.000137998
0.00019656
0.000235186
0.00024322
8.54055e-05
-3.48368e-05
-3.6524e-05
0
0
3.79325e-05
7.52819e-05
0.000111653
0.000146029
0.000177759
0.000205459
0.000228055
0.000244313
0.00025314
0.000254682
0.000201958
0.0001178
2.38288e-05
-1.66894e-05
-3.355e-05
-3.09074e-05
-1.58072e-05
0
0
7.7023e-05
0.000148506
0.000207585
0.000246579
0.000260133
0.000142839
-1.08404e-07
-2.54208e-05
0
0
3.86775e-05
7.65533e-05
0.00011302
0.000147109
0.000178148
0.000205126
0.000227311
0.000244048
0.000254843
0.000259764
0.000229199
0.000162364
6.73217e-05
1.56593e-05
-1.47745e-05
-2.00106e-05
-1.17345e-05
0
0
7.46436e-05
0.000143252
0.00019965
0.000238384
0.000256295
0.000176949
2.99549e-05
-1.47943e-05
0
0
3.63026e-05
7.18161e-05
0.000105919
0.000137791
0.000166816
0.000192295
0.000213663
0.000230549
0.000242663
0.000250044
0.000236968
0.000187386
0.000100144
4.32712e-05
2.43574e-06
-9.65838e-06
-7.82167e-06
0
0
6.84677e-05
0.000131458
0.000183815
0.000221483
0.000242265
0.000194658
5.52002e-05
-4.75881e-06
0
0
3.27727e-05
6.48597e-05
9.5712e-05
0.000124664
0.000151198
0.000174797
0.000195025
0.000211626
0.000224412
0.000233371
0.000233338
0.00019894
0.000123617
6.60902e-05
1.79688e-05
4.9258e-08
-4.08338e-06
0
0
6.11772e-05
0.000117763
0.000165588
0.000201518
0.000223836
0.000201267
7.57082e-05
4.60009e-06
0
0
2.90499e-05
5.75376e-05
8.50073e-05
0.000110931
0.000134884
0.000156474
0.000175352
0.000191324
0.000204247
0.000214078
0.000223366
0.000201513
0.000139349
8.43067e-05
3.17576e-05
9.04442e-06
-5.34052e-07
0
0
5.40156e-05
0.000104323
0.000147595
0.000181353
0.000204175
0.000200599
9.17799e-05
1.32257e-05
0
0
2.55534e-05
5.06574e-05
7.49459e-05
9.80013e-05
0.000119483
0.000139083
0.000156521
0.000171639
0.00018432
0.000194504
0.000210184
0.000198287
0.000148913
9.83034e-05
4.37822e-05
1.72849e-05
2.81309e-06
0
0
4.74856e-05
9.20244e-05
0.000130977
0.000162355
0.000184954
0.000195327
0.000103865
2.10843e-05
0
0
2.24339e-05
4.45124e-05
6.59451e-05
8.6402e-05
0.000105611
0.000123328
0.000139327
0.000153473
0.000165667
0.000175843
0.000195692
0.000191469
0.000153711
0.000108575
5.40693e-05
2.47477e-05
5.94686e-06
0
0
4.1737e-05
8.11453e-05
0.00011613
0.000145088
0.000166988
0.000187285
0.000112487
2.81598e-05
0
0
1.97185e-05
3.91567e-05
5.80848e-05
7.62417e-05
9.34105e-05
0.000109395
0.000124011
0.000137146
0.000148712
0.000158642
0.000181017
0.00018256
0.000154918
0.000115656
6.26868e-05
3.14251e-05
8.85845e-06
0
0
3.67612e-05
7.16816e-05
0.000103095
0.000129697
0.000150612
0.00017771
0.000118181
3.44504e-05
0
0
1.73819e-05
3.4542e-05
5.12989e-05
6.74443e-05
8.28053e-05
9.72225e-05
0.000110548
0.000122683
0.000133551
0.000143089
0.000166795
0.00017257
0.000153488
0.000120072
6.97347e-05
3.7322e-05
1.15416e-05
0
0
3.24863e-05
6.35124e-05
9.17462e-05
0.000116124
0.000135899
0.000167425
0.000121456
3.99668e-05
0
0
1.53797e-05
3.05836e-05
4.54664e-05
5.98631e-05
7.36337e-05
8.66494e-05
9.87884e-05
0.000109967
0.000120117
0.00012918
0.000153366
0.000162161
0.000150173
0.00012231
7.53353e-05
4.24546e-05
1.39923e-05
0
0
2.88202e-05
5.64767e-05
8.18988e-05
0.000104216
0.000122787
0.000156962
0.000122773
4.47304e-05
0
0
1.36641e-05
2.71868e-05
4.04554e-05
5.3332e-05
6.57088e-05
7.74764e-05
8.85385e-05
9.88207e-05
0.00010827
0.000116821
0.000140884
0.000151757
0.000145558
0.000122801
7.96237e-05
4.68494e-05
1.62089e-05
0
0
2.56739e-05
5.04128e-05
7.33526e-05
9.37828e-05
0.000111154
0.000146642
0.000122533
4.87723e-05
0
0
1.21913e-05
2.42712e-05
3.61391e-05
4.76984e-05
5.88454e-05
6.95081e-05
7.95899e-05
8.90471e-05
9.78182e-05
0.000105872
0.000129421
0.000141592
0.000140098
0.000121913
8.27399e-05
5.05415e-05
1.8192e-05
0
0
2.06431e-05
4.06691e-05
5.94969e-05
7.66292e-05
9.16686e-05
0.000127387
0.000118829
5.4783e-05
0
0
8.87348e-06
1.76873e-05
2.63851e-05
3.49156e-05
4.32161e-05
5.12519e-05
5.89601e-05
6.632e-05
7.32811e-05
7.98269e-05
0.000100629
0.000114351
0.00012149
0.000113787
8.6469e-05
5.77558e-05
2.2802e-05
0
0
1.52933e-05
3.02371e-05
4.44998e-05
5.77855e-05
6.98449e-05
0.000102538
0.000108234
5.95249e-05
0
0
6.66797e-06
1.33005e-05
1.9866e-05
2.63322e-05
3.26645e-05
3.88377e-05
4.48178e-05
5.0586e-05
5.61113e-05
6.13818e-05
7.90846e-05
9.2086e-05
0.000102917
0.000101866
8.41969e-05
6.02822e-05
2.55454e-05
0
0
1.16481e-05
2.30863e-05
3.41123e-05
4.45419e-05
5.42186e-05
8.26691e-05
9.55277e-05
6.0231e-05
0
0
5.13589e-06
1.025e-05
1.53228e-05
2.03342e-05
2.52626e-05
3.00921e-05
3.48013e-05
3.93777e-05
4.37976e-05
4.80548e-05
6.28079e-05
7.44055e-05
8.63291e-05
8.90157e-05
7.85216e-05
5.94377e-05
2.66985e-05
0
0
9.06669e-06
1.80003e-05
2.66718e-05
3.49604e-05
4.27617e-05
6.69776e-05
8.27766e-05
5.81631e-05
0
0
4.03184e-06
8.04943e-06
1.20404e-05
1.59913e-05
1.98883e-05
2.37204e-05
2.74744e-05
3.11403e-05
3.47036e-05
3.81584e-05
5.03893e-05
6.04442e-05
7.21199e-05
7.66865e-05
7.11843e-05
5.63863e-05
2.65922e-05
0
0
7.17447e-06
1.42609e-05
2.11731e-05
2.78298e-05
3.41584e-05
5.45697e-05
7.09395e-05
5.43653e-05
0
0
3.21125e-06
6.41289e-06
9.59664e-06
1.27532e-05
1.58735e-05
1.89496e-05
2.19728e-05
2.49359e-05
2.78293e-05
3.06481e-05
4.07778e-05
4.93712e-05
6.01643e-05
6.54841e-05
6.32893e-05
5.20357e-05
2.55625e-05
0
0
5.74927e-06
1.14381e-05
1.70072e-05
2.23998e-05
2.75643e-05
4.46899e-05
6.03721e-05
4.96225e-05
0
0
2.58615e-06
5.16558e-06
7.73257e-06
1.02806e-05
1.28033e-05
1.52951e-05
1.77498e-05
2.01622e-05
2.2526e-05
2.4837e-05
3.32327e-05
4.0519e-05
5.01758e-05
5.55973e-05
5.54933e-05
4.70472e-05
2.39128e-05
0
0
4.6516e-06
9.26045e-06
1.37844e-05
1.81831e-05
2.24187e-05
3.67555e-05
5.11399e-05
4.44902e-05
0
0
2.10023e-06
4.19565e-06
6.28218e-06
8.35504e-06
1.04098e-05
1.24423e-05
1.44481e-05
1.64234e-05
1.83638e-05
2.0266e-05
2.72328e-05
3.33815e-05
4.18493e-05
4.70166e-05
4.81592e-05
4.1876e-05
2.18963e-05
0
0
3.79075e-06
7.5505e-06
1.12486e-05
1.48554e-05
1.83428e-05
3.03306e-05
4.3177e-05
3.93398e-05
0
0
1.71628e-06
3.42901e-06
5.13521e-06
6.83139e-06
8.51431e-06
1.01809e-05
1.18278e-05
1.34523e-05
1.50511e-05
1.66217e-05
2.24079e-05
2.75812e-05
3.49091e-05
3.96457e-05
4.14654e-05
3.68179e-05
1.97104e-05
0
0
3.10557e-06
6.18806e-06
9.22468e-06
1.21933e-05
1.50732e-05
2.5089e-05
3.63641e-05
3.4404e-05
0
0
1.40889e-06
2.81514e-06
4.21655e-06
5.61036e-06
6.99426e-06
8.36569e-06
9.72236e-06
1.10618e-05
1.23822e-05
1.36808e-05
1.84942e-05
2.28329e-05
2.91203e-05
3.33573e-05
3.54784e-05
3.20499e-05
1.75016e-05
0
0
2.55403e-06
5.09089e-06
7.59328e-06
1.00443e-05
1.2427e-05
2.0793e-05
3.05691e-05
2.98099e-05
0
0
1.15997e-06
2.318e-06
3.47211e-06
4.62074e-06
5.76164e-06
6.89356e-06
8.01406e-06
9.12219e-06
1.02156e-05
1.12933e-05
1.52905e-05
1.8941e-05
2.42745e-05
2.80224e-05
3.02062e-05
2.76555e-05
1.53749e-05
0
0
1.63904e-06
3.26845e-06
4.87855e-06
6.45989e-06
8.00332e-06
1.3496e-05
2.02829e-05
2.08684e-05
0
0
5.78946e-07
1.15713e-06
1.73372e-06
2.30812e-06
2.87924e-06
3.44677e-06
4.00941e-06
4.56706e-06
5.11823e-06
5.66305e-06
7.7002e-06
9.59399e-06
1.24583e-05
1.46328e-05
1.62485e-05
1.54324e-05
8.88946e-06
0
0
8.24645e-07
1.64506e-06
2.45711e-06
3.25668e-06
4.03984e-06
6.85993e-06
1.05078e-05
1.13139e-05
0
0
2.92895e-07
5.85419e-07
8.77248e-07
1.16803e-06
1.45737e-06
1.74499e-06
2.03043e-06
2.31349e-06
2.59361e-06
2.87071e-06
3.91142e-06
4.88316e-06
6.38331e-06
7.53934e-06
8.53076e-06
8.24145e-06
4.81509e-06
0
0
4.18634e-07
8.35283e-07
1.24797e-06
1.65475e-06
2.05374e-06
3.49895e-06
5.41545e-06
5.9628e-06
0
0
1.49294e-07
2.98416e-07
4.47201e-07
5.9549e-07
7.43081e-07
8.89856e-07
1.03558e-06
1.18018e-06
1.32336e-06
1.46509e-06
1.99863e-06
2.49911e-06
3.27257e-06
3.87912e-06
4.42329e-06
4.30973e-06
2.53639e-06
0
0
2.10939e-07
4.20916e-07
6.28974e-07
8.34167e-07
1.03558e-06
1.7665e-06
2.74778e-06
3.05748e-06
0
0
7.05686e-08
1.41051e-07
2.11384e-07
2.81473e-07
3.51251e-07
4.20629e-07
4.89538e-07
5.57891e-07
6.25603e-07
6.92608e-07
9.45831e-07
1.18283e-06
1.5527e-06
1.84092e-06
2.11332e-06
2.0581e-06
1.22157e-06
0
0
7.65473e-08
1.52753e-07
2.28286e-07
3.02821e-07
3.76054e-07
6.41856e-07
1.00205e-06
1.12479e-06
0
0
0
0
0
0
0
0
0
0
0
0
0
0
0
0
0
0
0
0
SCALARS Displacement_Z double 1
LOOKUP_TABLE default
0.00441345
0.00440198
0.0043671
0.00430867
0.00422487
0.00411173
0.0039662
0.00378435
0.00354017
0.0032183
0.00270182
0.00163793
0.00121264
0.000813419
0.00060775
0.000406912
0.000304867
0.000219146
0.000197855
0.00427301
0.00422688
0.00408258
0.00382454
0.00339157
0.00265714
0.00120946
0.000607451
0.00030438
0.000197314
0.00411502
0.00410335
0.00406785
0.00400819
0.00392205
0.00380652
0.00365683
0.00346959
0.00323672
0.00293438
0.00260708
0.0016592
0.00120976
0.000814007
0.000607112
0.000406018
0.000303995
0.000218113
0.000196785
0.0039418
0.00389428
0.00374645
0.00348293
0.00307345
0.00253902
0.00121162
0.000607353
0.000303693
0.000196341
0.0037587
0.00374689
0.00371087
0.00365051
0.00356401
0.00344958
0.00330558
0.00313166
0.00292681
0.00269743
0.00246059
0.00166885
0.00121414
0.000817372
0.000607836
0.000405642
0.000303444
0.000217212
0.000195931
0.00357082
0.00352395
0.00338066
0.0031348
0.00278875
0.00238277
0.00121768
0.000608248
0.000303234
0.000195544
0.0033829
0.00337163
0.00333766
0.00328095
0.00320104
0.00309782
0.00297212
0.00282508
0.00266076
0.00248236
0.00229925
0.00164982
0.00121959
0.000822198
0.000609053
0.000405877
0.000303043
0.000216483
0.000195203
0.00319919
0.00315646
0.00302848
0.00281829
0.00253835
0.00222072
0.00121994
0.000609563
0.000302903
0.000194872
0.00302228
0.00301232
0.00298258
0.00293322
0.00286471
0.00277767
0.00267369
0.00255474
0.00242394
0.00228383
0.00213975
0.00160799
0.00121779
0.000826634
0.000610392
0.000406583
0.000302779
0.000215923
0.000194585
0.00285436
0.00281794
0.00271046
0.00253829
0.00231497
0.00206367
0.00121319
0.000610934
0.000302704
0.00019431
0.0026963
0.00268795
0.00266323
0.00262237
0.00256617
0.00249536
0.00241161
0.00231663
0.00221277
0.00210186
0.00198735
0.00155135
0.001206
0.000828878
0.000611635
0.000407575
0.000302653
0.000215523
0.000194073
0.00254857
0.00251877
0.0024315
0.00229331
0.00211574
0.00191543
0.00119652
0.000612048
0.000302634
0.000193852
0.00241115
0.00240438
0.0023844
0.00235145
0.0023063
0.00224963
0.00218283
0.00210726
0.00202462
0.00193629
0.00184458
0.00148618
0.00118473
0.000827834
0.00061245
0.000408679
0.000302646
0.00021527
0.000193661
0.00228361
0.00225971
0.0021899
0.00207978
0.00193835
0.00177766
0.00117118
0.000612533
0.000302668
0.00019349
0.00216554
0.00216013
0.00214419
0.00211789
0.0020819
0.00203677
0.00198357
0.00192332
0.00185728
0.00178648
0.00171255
0.00141697
0.00115577
0.000823092
0.00061246
0.000409736
0.000302727
0.000215149
0.000193344
0.00205622
0.00203718
0.00198157
0.00189379
0.00178066
0.00165094
0.0011392
0.000612033
0.000302777
0.000193219
0.00195512
0.0019508
0.0019381
0.00191715
0.00188846
0.00185245
0.00180994
0.00176168
0.00170861
0.00165149
0.00159148
0.00134675
0.00112121
0.000814732
0.000611346
0.0004106
0.000302861
0.000215142
0.000193115
0.00186146
0.00184627
0.00180188
0.00173162
0.00164056
0.00153515
0.00110258
0.00061028
0.000302923
0.000193033
0.00177473
0.00177129
0.00176114
0.00174438
0.0017214
0.00169253
0.00165837
0.00161946
0.00157651
0.0015301
0.00148107
0.00127752
0.00108296
0.000803121
0.000608889
0.000411143
0.000303013
0.000215232
0.00019297
0.00169424
0.00168207
0.00164644
0.00158983
0.00151602
0.00142978
0.0010631
0.000607116
0.00030307
0.000192927
0.00161954
0.00161677
0.00160861
0.00159512
0.0015766
0.00155328
0.00152562
0.00149402
0.00145901
0.00142102
0.00138069
0.00121054
0.00104261
0.000788763
0.000604985
0.000411263
0.000303145
0.000215398
0.000192902
0.00155003
0.0015402
0.00151139
0.00146542
0.00140514
0.00133407
0.00102216
0.000602488
0.00030318
0.000192894
0.00148532
0.00148308
0.00147646
0.00146552
0.00145047
0.00143149
0.00140892
0.00138305
0.00135429
0.00132297
0.00128956
0.00114656
0.00100138
0.000772201
0.000599628
0.000410883
0.000303222
0.000215623
0.000192903
0.00142493
0.00141694
0.00139344
0.00135582
0.00130619
0.00124722
0.000980839
0.000596431
0.000303217
0.000192926
0.00136854
0.00136671
0.0013613
0.00135235
0.00134002
0.00132444
0.00130587
0.00128453
0.00126072
0.0012347
0.00120683
0.001086
0.000960184
0.000753959
0.000592885
0.000409954
0.000303207
0.000215886
0.000192965
0.00131575
0.00130919
0.00128987
0.00125883
0.00121766
0.00116836
0.000939908
0.000589043
0.000303146
0.000193013
0.00126631
0.0012648
0.00126034
0.00125295
0.00124276
0.00122988
0.00121447
0.00119673
0.00117686
0.0011551
0.00113168
0.00102901
0.000919682
0.00073451
0.000584878
0.000408451
0.000303068
0.00021617
0.000193078
0.00121988
0.00121445
0.00119843
0.0011726
0.00113818
0.0010967
0.000899911
0.000580463
0.000302936
0.000193147
0.00117626
0.00117501
0.0011713
0.00116515
0.00115666
0.00114591
0.00113303
0.00111816
0.00110147
0.00108313
0.00106334
0.000975607
0.000880311
0.000714262
0.000575758
0.000406372
0.000302776
0.000216458
0.000193232
0.0011352
0.00113065
0.00111726
0.00109559
0.0010666
0.00103147
0.000861202
0.000570853
0.000302559
0.000193316
0.0010965
0.00109543
0.00109233
0.00108716
0.00108004
0.00107098
0.00106014
0.00104757
0.00103345
0.00101789
0.00100106
0.000925723
0.00084235
0.000693558
0.000565695
0.00040373
0.000302306
0.000216732
0.000193416
0.000992645
0.00098942
0.00097984
0.000964271
0.000943273
0.000917537
0.000788892
0.000549428
0.000301186
0.000193686
0.0009044
0.000903736
0.00090183
0.000898635
0.000894238
0.000888613
0.000881861
0.000873982
0.000865084
0.000855218
0.00084446
0.00079529
0.000738543
0.000631124
0.000531576
0.000392765
0.000299625
0.000217322
0.000194065
0.00082845
0.000826398
0.0008203
0.000810332
0.000796777
0.000779982
0.000692563
0.000513404
0.000297542
0.00019432
0.00076259
0.000762164
0.000760919
0.000758838
0.000755958
0.000752275
0.000747833
0.000742637
0.000736741
0.000730183
0.000722999
0.000689575
0.000649927
0.000571577
0.000494519
0.000378106
0.000294944
0.00021731
0.000194612
0.000704926
0.000703557
0.000699478
0.000692784
0.000683628
0.000672186
0.000610947
0.000475956
0.000291875
0.000194729
0.000654113
0.000653823
0.000652974
0.000651554
0.000649585
0.000647064
0.000644016
0.000640442
0.000636373
0.000631832
0.000626836
0.000603379
0.000575
0.000517026
0.000457287
0.000361019
0.000288311
0.000216461
0.000194798
0.000608988
0.000608036
0.000605197
0.000600525
0.000594105
0.000586044
0.000542001
0.000439276
0.000284366
0.000194666
0.000568703
0.000568498
0.000567898
0.000566894
0.0005655
0.000563714
0.00056155
0.000559009
0.00055611
0.000552865
0.000549285
0.000532367
0.000511589
0.000468063
0.000421525
0.000342585
0.000279994
0.000214641
0.000194406
0.00053251
0.000531827
0.000529789
0.000526426
0.000521793
0.000515952
0.000483548
0.000404561
0.000275338
0.000193932
0.000499847
0.000499699
0.000499262
0.000498532
0.000497518
0.000496217
0.000494639
0.000492783
0.000490663
0.000488284
0.000485654
0.000473168
0.000457656
0.000424524
0.000388051
0.000323622
0.000270342
0.000211805
0.000193268
0.000470212
0.00046971
0.000468209
0.00046573
0.000462305
0.000457975
0.000433671
0.000372337
0.00026515
0.000192386
0.000443219
0.000443109
0.000442784
0.000442241
0.000441486
0.000440517
0.00043934
0.000437956
0.000436372
0.000434591
0.00043262
0.000423226
0.00041145
0.000385919
0.000357158
0.000304692
0.000259702
0.000207966
0.000191274
0.000418518
0.000418141
0.000417013
0.000415148
0.000412566
0.000409296
0.000390772
0.000342725
0.000254134
0.000189946
0.000395835
0.000395752
0.000395505
0.000395094
0.000394522
0.000393787
0.000392894
0.000391843
0.000390638
0.000389283
0.00038778
0.000380599
0.000371534
0.000351652
0.000328842
0.000286149
0.000248381
0.00020318
0.000188367
0.00037492
0.000374632
0.00037377
0.000372344
0.000370368
0.00036786
0.000353551
0.000315628
0.000242566
0.000186581
0.000355573
0.000355509
0.000355319
0.000355003
0.000354562
0.000353997
0.000353309
0.000352499
0.000351571
0.000350525
0.000349365
0.000343802
0.000336743
0.000321122
0.000302941
0.000268196
0.000236623
0.000197524
0.000184539
0.000337609
0.000337387
0.00033672
0.000335615
0.000334082
0.000332134
0.000320962
0.000290838
0.000230657
0.000182301
0.000320881
0.000320832
0.000320684
0.000320438
0.000320095
0.000319655
0.000319119
0.000318488
0.000317764
0.000316947
0.000316039
0.00031169
0.00030614
0.000293772
0.00027922
0.000250929
0.000224607
0.000191086
0.000179814
0.000305251
0.000305076
0.000304554
0.00030369
0.00030249
0.000300963
0.000292166
0.0002681
0.00021856
0.000177147
0.000290604
0.000290563
0.000290448
0.000290253
0.000289985
0.000289637
0.000289217
0.00028872
0.000288152
0.00028751
0.0002868
0.000283354
0.00027898
0.000269107
0.000257413
0.000234381
0.000212459
0.000183957
0.000174246
0.000243695
0.000243595
0.000243292
0.000242789
0.000242089
0.000241197
0.000236026
0.000221611
0.000190417
0.000162314
0.000204929
0.000204911
0.000204861
0.000204775
0.000204659
0.000204507
0.000204325
0.000204107
0.00020386
0.000203579
0.000203269
0.00020175
0.000199819
0.000195381
0.000190027
0.000179134
0.000168196
0.000153186
0.000147873
0.000171642
0.000171597
0.000171462
0.000171237
0.000170925
0.000170526
0.000168198
0.000161566
0.000146576
0.000132168
0.00014219
0.000142182
0.00014216
0.000142122
0.000142069
0.000142001
0.000141919
0.000141821
0.00014171
0.000141583
0.000141443
0.000140759
0.000139883
0.000137867
0.000135419
0.000130294
0.00012504
0.00011761
0.000114952
0.000115358
0.000115338
0.000115278
0.000115179
0.000115039
0.000114861
0.000113824
0.000110829
0.000103904
9.70298e-05
9.03604e-05
9.03569e-05
9.03472e-05
9.03308e-05
9.03084e-05
9.02791e-05
9.02438e-05
9.02019e-05
9.0154e-05
9.00998e-05
9.00398e-05
8.97435e-05
8.93645e-05
8.84973e-05
8.74361e-05
8.51831e-05
8.28525e-05
7.95004e-05
7.83001e-05
6.66122e-05
6.66042e-05
6.65804e-05
6.65409e-05
6.64857e-05
6.64149e-05
6.60039e-05
6.48103e-05
6.20262e-05
5.92123e-05
4.37629e-05
4.37617e-05
4.37585e-05
4.3753e-05
4.37456e-05
4.37359e-05
4.37242e-05
4.37103e-05
4.36945e-05
4.36767e-05
4.36569e-05
4.35574e-05
4.34316e-05
4.31433e-05
4.2792e-05
4.20351e-05
4.12524e-05
4.01045e-05
3.97075e-05
2.1573e-05
2.15713e-05
2.15662e-05
2.15578e-05
2.15459e-05
2.15306e-05
2.14429e-05
2.11832e-05
2.06056e-05
2.00016e-05
-0
-0
-0
-0
-0
-0
-0
-0
-0
-0
-0
-0
-0
-0
-0
-0
-0
-0
-0
SCALARS Stress_R double 1
LOOKUP_TABLE default
12.0079
11.9944
11.9994
11.9988
12.07
12.0307
12.3653
12.6237
12.0216
9.43072
2.73153
-1.77848
-1.35919
-0.528017
-0.348536
-0.228338
-0.144334
-0.106244
-0.0866151
10.0226
9.95023
9.68323
8.92877
7.00327
3.31787
-0.337435
-0.268721
-0.127239
-0.0801731
8.25632
8.17278
8.12272
7.91482
7.70602
7.23349
6.7985
6.15724
4.32687
4.53745
4.47826
1.3673
0.103622
-0.156667
-0.172127
-0.149398
-0.112675
-0.0915066
-0.0745241
6.516
6.33749
5.85287
4.89066
3.64432