# vtk DataFile Version 2.0
./vtk
ASCII

DATASET UNSTRUCTURED_GRID
POINTS 889 double
0 0 0.0
0.5 0 0.0
1 0 0.0
1.5 0 0.0
2 0 0.0
2.5 0 0.0
3 0 0.0
3.5 0 0.0
4 0 0.0
4.5 0 0.0
5 0 0.0
6.9457 0 0.0
8.8914 0 0.0
12.3514 0 0.0
15.8114 0 0.0
21.9642 0 0.0
28.1171 0 0.0
39.0585 0 0.0
50 0 0.0
0 -0.5 0.0
1 -0.5 0.0
2 -0.5 0.0
3 -0.5 0.0
4 -0.5 0.0
5 -0.5 0.0
8.8914 -0.5 0.0
15.8114 -0.5 0.0
28.1171 -0.5 0.0
50 -0.5 0.0
0 -1 0.0
0.5 -1 0.0
1 -1 0.0
1.5 -1 0.0
2 -1 0.0
2.5 -1 0.0
3 -1 0.0
3.5 -1 0.0
4 -1 0.0
4.5 -1 0.0
5 -1 0.0
6.9457 -1 0.0
8.8914 -1 0.0
12.3514 -1 0.0
15.8114 -1 0.0
21.9642 -1 0.0
28.1171 -1 0.0
39.0585 -1 0.0
50 -1 0.0
0 -1.5 0.0
1 -1.5 0.0
2 -1.5 0.0
3 -1.5 0.0
4 -1.5 0.0
5 -1.5 0.0
8.8914 -1.5 0.0
15.8114 -1.5 0.0
28.1171 -1.5 0.0
50 -1.5 0.0
0 -2 0.0
0.5 -2 0.0
1 -2 0.0
1.5 -2 0.0
2 -2 0.0
2.5 -2 0.0
3 -2 0.0
3.5 -2 0.0
4 -2 0.0
4.5 -2 0.0
5 -2 0.0
6.9457 -2 0.0
8.8914 -2 0.0
12.3514 -2 0.0
15.8114 -2 0.0
21.9642 -2 0.0
28.1171 -2 0.0
39.0585 -2 0.0
50 -2 0.0
0 -2.5 0.0
1 -2.5 0.0
2 -2.5 0.0
3 -2.5 0.0
4 -2.5 0.0
5 -2.5 0.0
8.8914 -2.5 0.0
15.8114 -2.5 0.0
28.1171 -2.5 0.0
50 -2.5 0.0
0 -3 0.0
0.5 -3 0.0
1 -3 0.0
1.5 -3 0.0
2 -3 0.0
2.5 -3 0.0
3 -3 0.0
3.5 -3 0.0
4 -3 0.0
4.5 -3 0.0
5 -3 0.0
6.9457 -3 0.0
8.8914 -3 0.0
12.3514 -3 0.0
15.8114 -3 0.0
21.9642 -3 0.0
28.1171 -3 0.0
39.0585 -3 0.0
50 -3 0.0
0 -3.5 0.0
1 -3.5 0.0
2 -3.5 0.0
3 -3.5 0.0
4 -3.5 0.0
5 -3.5 0.0
8.8914 -3.5 0.0
15.8114 -3.5 0.0
28.1171 -3.5 0.0
50 -3.5 0.0
0 -4 0.0
0.5 -4 0.0
1 -4 0.0
1.5 -4 0.0
2 -4 0.0
2.5 -4 0.0
3 -4 0.0
3.5 -4 0.0
4 -4 0.0
4.5 -4 0.0
5 -4 0.0
6.9457 -4 0.0
8.8914 -4 0.0
12.3514 -4 0.0
15.8114 -4 0.0
21.9642 -4 0.0
28.1171 -4 0.0
39.0585 -4 0.0
50 -4 0.0
0 -4.5 0.0
1 -4.5 0.0
2 -4.5 0.0
3 -4.5 0.0
4 -4.5 0.0
5 -4.5 0.0
8.8914 -4.5 0.0
15.8114 -4.5 0.0
28.1171 -4.5 0.0
50 -4.5 0.0
0 -5 0.0
0.5 -5 0.0
1 -5 0.0
1.5 -5 0.0
2 -5 0.0
2.5 -5 0.0
3 -5 0.0
3.5 -5 0.0
4 -5 0.0
4.5 -5 0.0
5 -5 0.0
6.9457 -5 0.0
8.8914 -5 0.0
12.3514 -5 0.0
15.8114 -5 0.0
21.9642 -5 0.0
28.1171 -5 0.0
39.0585 -5 0.0
50 -5 0.0
0 -5.5 0.0
1 -5.5 0.0
2 -5.5 0.0
3 -5.5 0.0
4 -5.5 0.0
5 -5.5 0.0
8.8914 -5.5 0.0
15.8114 -5.5 0.0
28.1171 -5.5 0.0
50 -5.5 0.0
0 -6 0.0
0.5 -6 0.0
1 -6 0.0
1.5 -6 0.0
2 -6 0.0
2.5 -6 0.0
3 -6 0.0
3.5 -6 0.0
4 -6 0.0
4.5 -6 0.0
5 -6 0.0
6.9457 -6 0.0
8.8914 -6 0.0
12.3514 -6 0.0
15.8114 -6 0.0
21.9642 -6 0.0
28.1171 -6 0.0
39.0585 -6 0.0
50 -6 0.0
0 -6.5 0.0
1 -6.5 0.0
2 -6.5 0.0
3 -6.5 0.0
4 -6.5 0.0
5 -6.5 0.0
8.8914 -6.5 0.0
15.8114 -6.5 0.0
28.1171 -6.5 0.0
50 -6.5 0.0
0 -7 0.0
0.5 -7 0.0
1 -7 0.0
1.5 -7 0.0
2 -7 0.0
2.5 -7 0.0
3 -7 0.0
3.5 -7 0.0
4 -7 0.0
4.5 -7 0.0
5 -7 0.0
6.9457 -7 0.0
8.8914 -7 0.0
12.3514 -7 0.0
15.8114 -7 0.0
21.9642 -7 0.0
28.1171 -7 0.0
39.0585 -7 0.0
50 -7 0.0
0 -7.5 0.0
1 -7.5 0.0
2 -7.5 0.0
3 -7.5 0.0
4 -7.5 0.0
5 -7.5 0.0
8.8914 -7.5 0.0
15.8114 -7.5 0.0
28.1171 -7.5 0.0
50 -7.5 0.0
0 -8 0.0
0.5 -8 0.0
1 -8 0.0
1.5 -8 0.0
2 -8 0.0
2.5 -8 0.0
3 -8 0.0
3.5 -8 0.0
4 -8 0.0
4.5 -8 0.0
5 -8 0.0
6.9457 -8 0.0
8.8914 -8 0.0
12.3514 -8 0.0
15.8114 -8 0.0
21.9642 -8 0.0
28.1171 -8 0.0
39.0585 -8 0.0
50 -8 0.0
0 -8.5 0.0
1 -8.5 0.0
2 -8.5 0.0
3 -8.5 0.0
4 -8.5 0.0
5 -8.5 0.0
8.8914 -8.5 0.0
15.8114 -8.5 0.0
28.1171 -8.5 0.0
50 -8.5 0.0
0 -9 0.0
0.5 -9 0.0
1 -9 0.0
1.5 -9 0.0
2 -9 0.0
2.5 -9 0.0
3 -9 0.0
3.5 -9 0.0
4 -9 0.0
4.5 -9 0.0
5 -9 0.0
6.9457 -9 0.0
8.8914 -9 0.0
12.3514 -9 0.0
15.8114 -9 0.0
21.9642 -9 0.0
28.1171 -9 0.0
39.0585 -9 0.0
50 -9 0.0
0 -9.5 0.0
1 -9.5 0.0
2 -9.5 0.0
3 -9.5 0.0
4 -9.5 0.0
5 -9.5 0.0
8.8914 -9.5 0.0
15.8114 -9.5 0.0
28.1171 -9.5 0.0
50 -9.5 0.0
0 -10 0.0
0.5 -10 0.0
1 -10 0.0
1.5 -10 0.0
2 -10 0.0
2.5 -10 0.0
3 -10 0.0
3.5 -10 0.0
4 -10 0.0
4.5 -10 0.0
5 -10 0.0
6.9457 -10 0.0
8.8914 -10 0.0
12.3514 -10 0.0
15.8114 -10 0.0
21.9642 -10 0.0
28.1171 -10 0.0
39.0585 -10 0.0
50 -10 0.0
0 -10.5 0.0
1 -10.5 0.0
2 -10.5 0.0
3 -10.5 0.0
4 -10.5 0.0
5 -10.5 0.0
8.8914 -10.5 0.0
15.8114 -10.5 0.0
28.1171 -10.5 0.0
50 -10.5 0.0
0 -11 0.0
0.5 -11 0.0
1 -11 0.0
1.5 -11 0.0
2 -11 0.0
2.5 -11 0.0
3 -11 0.0
3.5 -11 0.0
4 -11 0.0
4.5 -11 0.0
5 -11 0.0
6.9457 -11 0.0
8.8914 -11 0.0
12.3514 -11 0.0
15.8114 -11 0.0
21.9642 -11 0.0
28.1171 -11 0.0
39.0585 -11 0.0
50 -11 0.0
0 -11.5 0.0
1 -11.5 0.0
2 -11.5 0.0
3 -11.5 0.0
4 -11.5 0.0
5 -11.5 0.0
8.8914 -11.5 0.0
15.8114 -11.5 0.0
28.1171 -11.5 0.0
50 -11.5 0.0
0 -12 0.0
0.5 -12 0.0
1 -12 0.0
1.5 -12 0.0
2 -12 0.0
2.5 -12 0.0
3 -12 0.0
3.5 -12 0.0
4 -12 0.0
4.5 -12 0.0
5 -12 0.0
6.9457 -12 0.0
8.8914 -12 0.0
12.3514 -12 0.0
15.8114 -12 0.0
21.9642 -12 0.0
28.1171 -12 0.0
39.0585 -12 0.0
50 -12 0.0
0 -12.5 0.0
1 -12.5 0.0
2 -12.5 0.0
3 -12.5 0.0
4 -12.5 0.0
5 -12.5 0.0
8.8914 -12.5 0.0
15.8114 -12.5 0.0
28.1171 -12.5 0.0
50 -12.5 0.0
0 -13 0.0
0.5 -13 0.0
1 -13 0.0
1.5 -13 0.0
2 -13 0.0
2.5 -13 0.0
3 -13 0.0
3.5 -13 0.0
4 -13 0.0
4.5 -13 0.0
5 -13 0.0
6.9457 -13 0.0
8.8914 -13 0.0
12.3514 -13 0.0
15.8114 -13 0.0
21.9642 -13 0.0
28.1171 -13 0.0
39.0585 -13 0.0
50 -13 0.0
0 -13.5 0.0
1 -13.5 0.0
2 -13.5 0.0
3 -13.5 0.0
4 -13.5 0.0
5 -13.5 0.0
8.8914 -13.5 0.0
15.8114 -13.5 0.0
28.1171 -13.5 0.0
50 -13.5 0.0
0 -14 0.0
0.5 -14 0.0
1 -14 0.0
1.5 -14 0.0
2 -14 0.0
2.5 -14 0.0
3 -14 0.0
3.5 -14 0.0
4 -14 0.0
4.5 -14 0.0
5 -14 0.0
6.9457 -14 0.0
8.8914 -14 0.0
12.3514 -14 0.0
15.8114 -14 0.0
21.9642 -14 0.0
28.1171 -14 0.0
39.0585 -14 0.0
50 -14 0.0
0 -14.5 0.0
1 -14.5 0.0
2 -14.5 0.0
3 -14.5 0.0
4 -14.5 0.0
5 -14.5 0.0
8.8914 -14.5 0.0
15.8114 -14.5 0.0
28.1171 -14.5 0.0
50 -14.5 0.0
0 -15 0.0
0.5 -15 0.0
1 -15 0.0
1.5 -15 0.0
2 -15 0.0
2.5 -15 0.0
3 -15 0.0
3.5 -15 0.0
4 -15 0.0
4.5 -15 0.0
5 -15 0.0
6.9457 -15 0.0
8.8914 -15 0.0
12.3514 -15 0.0
15.8114 -15 0.0
21.9642 -15 0.0
28.1171 -15 0.0
39.0585 -15 0.0
50 -15 0.0
0 -16.5 0.0
1 -16.5 0.0
2 -16.5 0.0
3 -16.5 0.0
4 -16.5 0.0
5 -16.5 0.0
8.8914 -16.5 0.0
15.8114 -16.5 0.0
28.1171 -16.5 0.0
50 -16.5 0.0
0 -18 0.0
0.5 -18 0.0
1 -18 0.0
1.5 -18 0.0
2 -18 0.0
2.5 -18 0.0
3 -18 0.0
3.5 -18 0.0
4 -18 0.0
4.5 -18 0.0
5 -18 0.0
6.9457 -18 0.0
8.8914 -18 0.0
12.3514 -18 0.0
15.8114 -18 0.0
21.9642 -18 0.0
28.1171 -18 0.0
39.0585 -18 0.0
50 -18 0.0
0 -19.5 0.0
1 -19.5 0.0
2 -19.5 0.0
3 -19.5 0.0
4 -19.5 0.0
5 -19.5 0.0
8.8914 -19.5 0.0
15.8114 -19.5 0.0
28.1171 -19.5 0.0
50 -19.5 0.0
0 -21 0.0
0.5 -21 0.0
1 -21 0.0
1.5 -21 0.0
2 -21 0.0
2.5 -21 0.0
3 -21 0.0
3.5 -21 0.0
4 -21 0.0
4.5 -21 0.0
5 -21 0.0
6.9457 -21 0.0
8.8914 -21 0.0
12.3514 -21 0.0
15.8114 -21 0.0
21.9642 -21 0.0
28.1171 -21 0.0
39.0585 -21 0.0
50 -21 0.0
0 -22.5 0.0
1 -22.5 0.0
2 -22.5 0.0
3 -22.5 0.0
4 -22.5 0.0
5 -22.5 0.0
8.8914 -22.5 0.0
15.8114 -22.5 0.0
28.1171 -22.5 0.0
50 -22.5 0.0
0 -24 0.0
0.5 -24 0.0
1 -24 0.0
1.5 -24 0.0
2 -24 0.0
2.5 -24 0.0
3 -24 0.0
3.5 -24 0.0
4 -24 0.0
4.5 -24 0.0
5 -24 0.0
6.9457 -24 0.0
8.8914 -24 0.0
12.3514 -24 0.0
15.8114 -24 0.0
21.9642 -24 0.0
28.1171 -24 0.0
39.0585 -24 0.0
50 -24 0.0
0 -25.5 0.0
1 -25.5 0.0
2 -25.5 0.0
3 -25.5 0.0
4 -25.5 0.0
5 -25.5 0.0
8.8914 -25.5 0.0
15.8114 -25.5 0.0
28.1171 -25.5 0.0
50 -25.5 0.0
0 -27 0.0
0.5 -27 0.0
1 -27 0.0
1.5 -27 0.0
2 -27 0.0
2.5 -27 0.0
3 -27 0.0
3.5 -27 0.0
4 -27 0.0
4.5 -27 0.0
5 -27 0.0
6.9457 -27 0.0
8.8914 -27 0.0
12.3514 -27 0.0
15.8114 -27 0.0
21.9642 -27 0.0
28.1171 -27 0.0
39.0585 -27 0.0
50 -27 0.0
0 -28.5 0.0
1 -28.5 0.0
2 -28.5 0.0
3 -28.5 0.0
4 -28.5 0.0
5 -28.5 0.0
8.8914 -28.5 0.0
15.8114 -28.5 0.0
28.1171 -28.5 0.0
50 -28.5 0.0
0 -30 0.0
0.5 -30 0.0
1 -30 0.0
1.5 -30 0.0
2 -30 0.0
2.5 -30 0.0
3 -30 0.0
3.5 -30 0.0
4 -30 0.0
4.5 -30 0.0
5 -30 0.0
6.9457 -30 0.0
8.8914 -30 0.0
12.3514 -30 0.0
15.8114 -30 0.0
21.9642 -30 0.0
28.1171 -30 0.0
39.0585 -30 0.0
50 -30 0.0
0 -31.5 0.0
1 -31.5 0.0
2 -31.5 0.0
3 -31.5 0.0
4 -31.5 0.0
5 -31.5 0.0
8.8914 -31.5 0.0
15.8114 -31.5 0.0
28.1171 -31.5 0.0
50 -31.5 0.0
0 -33 0.0
0.5 -33 0.0
1 -33 0.0
1.5 -33 0.0
2 -33 0.0
2.5 -33 0.0
3 -33 0.0
3.5 -33 0.0
4 -33 0.0
4.5 -33 0.0
5 -33 0.0
6.9457 -33 0.0
8.8914 -33 0.0
12.3514 -33 0.0
15.8114 -33 0.0
21.9642 -33 0.0
28.1171 -33 0.0
39.0585 -33 0.0
50 -33 0.0
0 -34.5 0.0
1 -34.5 0.0
2 -34.5 0.0
3 -34.5 0.0
4 -34.5 0.0
5 -34.5 0.0
8.8914 -34.5 0.0
15.8114 -34.5 0.0
28.1171 -34.5 0.0
50 -34.5 0.0
0 -36 0.0
0.5 -36 0.0
1 -36 0.0
1.5 -36 0.0
2 -36 0.0
2.5 -36 0.0
3 -36 0.0
3.5 -36 0.0
4 -36 0.0
4.5 -36 0.0
5 -36 0.0
6.9457 -36 0.0
8.8914 -36 0.0
12.3514 -36 0.0
15.8114 -36 0.0
21.9642 -36 0.0
28.1171 -36 0.0
39.0585 -36 0.0
50 -36 0.0
0 -37.5 0.0
1 -37.5 0.0
2 -37.5 0.0
3 -37.5 0.0
4 -37.5 0.0
5 -37.5 0.0
8.8914 -37.5 0.0
15.8114 -37.5 0.0
28.1171 -37.5 0.0
50 -37.5 0.0
0 -39 0.0
0.5 -39 0.0
1 -39 0.0
1.5 -39 0.0
2 -39 0.0
2.5 -39 0.0
3 -39 0.0
3.5 -39 0.0
4 -39 0.0
4.5 -39 0.0
5 -39 0.0
6.9457 -39 0.0
8.8914 -39 0.0
12.3514 -39 0.0
15.8114 -39 0.0
21.9642 -39 0.0
28.1171 -39 0.0
39.0585 -39 0.0
50 -39 0.0
0 -40.5 0.0
1 -40.5 0.0
2 -40.5 0.0
3 -40.5 0.0
4 -40.5 0.0
5 -40.5 0.0
8.8914 -40.5 0.0
15.8114 -40.5 0.0
28.1171 -40.5 0.0
50 -40.5 0.0
0 -42 0.0
0.5 -42 0.0
1 -42 0.0
1.5 -42 0.0
2 -42 0.0
2.5 -42 0.0
3 -42 0.0
3.5 -42 0.0
4 -42 0.0
4.5 -42 0.0
5 -42 0.0
6.9457 -42 0.0
8.8914 -42 0.0
12.3514 -42 0.0
15.8114 -42 0.0
21.9642 -42 0.0
28.1171 -42 0.0
39.0585 -42 0.0
50 -42 0.0
0 -43.5 0.0
1 -43.5 0.0
2 -43.5 0.0
3 -43.5 0.0
4 -43.5 0.0
5 -43.5 0.0
8.8914 -43.5 0.0
15.8114 -43.5 0.0
28.1171 -43.5 0.0
50 -43.5 0.0
0 -45 0.0
0.5 -45 0.0
1 -45 0.0
1.5 -45 0.0
2 -45 0.0
2.5 -45 0.0
3 -45 0.0
3.5 -45 0.0
4 -45 0.0
4.5 -45 0.0
5 -45 0.0
6.9457 -45 0.0
8.8914 -45 0.0
12.3514 -45 0.0
15.8114 -45 0.0
21.9642 -45 0.0
28.1171 -45 0.0
39.0585 -45 0.0
50 -45 0.0
0 -50.5 0.0
1 -50.5 0.0
2 -50.5 0.0
3 -50.5 0.0
4 -50.5 0.0
5 -50.5 0.0
8.8914 -50.5 0.0
15.8114 -50.5 0.0
28.1171 -50.5 0.0
50 -50.5 0.0
0 -56 0.0
0.5 -56 0.0
1 -56 0.0
1.5 -56 0.0
2 -56 0.0
2.5 -56 0.0
3 -56 0.0
3.5 -56 0.0
4 -56 0.0
4.5 -56 0.0
5 -56 0.0
6.9457 -56 0.0
8.8914 -56 0.0
12.3514 -56 0.0
15.8114 -56 0.0
21.9642 -56 0.0
28.1171 -56 0.0
39.0585 -56 0.0
50 -56 0.0
0 -61.5 0.0
1 -61.5 0.0
2 -61.5 0.0
3 -61.5 0.0
4 -61.5 0.0
5 -61.5 0.0
8.8914 -61.5 0.0
15.8114 -61.5 0.0
28.1171 -61.5 0.0
[...]
POINT_DATA 889
SCALARS Displacement_R double 1
LOOKUP_TABLE default
6.2808e-08
-6.45604e-05
-0.000129207
-0.00019386
-0.00025799
-0.000323405
-0.000388598
-0.000460015
-0.000523814
-0.000567897
-0.000586546
-0.000477547
-0.000338602
-0.000248995
-0.000180835
-0.000123895
-8.27222e-05
-5.53195e-05
-4.22921e-05
5.02821e-08
-8.32008e-05
-0.000162162
-0.000230036
-0.000265338
-0.000276284
-0.000270828
-0.000159055
-7.6899e-05
-3.97985e-05
1.38755e-07
-2.07628e-05
-4.0545e-05
-5.89174e-05
-7.42217e-05
-8.53047e-05
-8.94703e-05
-8.9202e-05
-8.13613e-05
-6.34384e-05
-7.21598e-05
-0.000167041
-0.000195553
-0.000167818
-0.000138613
-9.93455e-05
-7.08254e-05
-4.72554e-05
-3.73428e-05
1.23762e-07
-4.15767e-06
-7.61553e-07
1.67841e-05
4.7975e-05
5.05783e-05
-0.000124577
-0.00011631
-6.42886e-05
-3.45355e-05
8.73805e-08
1.21512e-05
2.51393e-05
3.92052e-05
5.53418e-05
7.40778e-05
9.44151e-05
0.000114878
0.000130771
0.000136397
0.000130432
3.10465e-05
-5.88786e-05
-9.48003e-05
-9.41137e-05
-7.60346e-05
-5.77517e-05
-3.93064e-05
-3.16765e-05
6.59817e-08
4.6589e-05
9.57876e-05
0.00014579
0.000183888
0.000186631
-2.10869e-06
-7.31644e-05
-5.10796e-05
-2.87134e-05
-3.06057e-08
3.06805e-05
6.13898e-05
9.21112e-05
0.00012233
0.000151691
0.000178216
0.000200945
0.000216779
0.000223641
0.00022103
0.00014335
4.71745e-05
-2.96115e-05
-5.23994e-05
-5.35618e-05
-4.44525e-05
-3.13458e-05
-2.56959e-05
-3.54459e-08
7.05857e-05
0.000138313
0.000197029
0.000235805
0.000243982
8.66404e-05
-3.33161e-05
-3.78251e-05
-2.2635e-05
-9.16107e-08
3.80182e-05
7.54651e-05
0.000111925
0.00014639
0.00017821
0.000205999
0.000228682
0.000245026
0.000253937
0.000255562
0.000203142
0.000119251
2.5624e-05
-1.47454e-05
-3.21264e-05
-3.12422e-05
-2.33772e-05
-1.95362e-05
-9.2086e-08
7.72292e-05
0.000148917
0.000208198
0.00024739
0.000261137
0.000144516
2.27371e-06
-2.47511e-05
-1.64149e-05
-1.13094e-07
3.87916e-05
7.67859e-05
0.000113368
0.000147572
0.000178725
0.000205816
0.000228115
0.000244963
0.000255868
0.000260898
0.00023074
0.000164278
6.97878e-05
1.84974e-05
-1.1978e-05
-1.83027e-05
-1.54311e-05
-1.32721e-05
-1.05849e-07
7.49023e-05
0.000143768
0.000200421
0.000239407
0.000257564
0.000179109
3.32644e-05
-1.20223e-05
-1.01227e-05
-1.08323e-07
3.64448e-05
7.21029e-05
0.000106349
0.000138363
0.000167529
0.00019315
0.000214658
0.000231683
0.000243935
0.000251453
0.000238895
0.000189801
0.000103332
4.70675e-05
6.70461e-06
-5.79236e-06
-7.54342e-06
-6.96326e-06
-9.79179e-08
6.87827e-05
0.000132087
0.000184756
0.000222733
0.000243819
0.000197337
5.94976e-05
2.20529e-07
-3.81128e-06
-9.2746e-08
3.29446e-05
6.52045e-05
9.62287e-05
0.000125352
0.000152058
0.000175827
0.000196225
0.000212994
0.000225948
0.000235074
0.000235677
0.00020189
0.000127572
7.09027e-05
2.37943e-05
6.16614e-06
2.46922e-07
-6.56061e-07
-8.29661e-08
6.15521e-05
0.000118512
0.00016671
0.000203008
0.000225692
0.000204497
8.10482e-05
1.18704e-05
2.47863e-06
-7.54342e-08
2.92529e-05
5.79437e-05
8.56163e-05
0.000111742
0.000135898
0.000157689
0.000176768
0.00019294
0.000206062
0.000216092
0.000226141
0.000205028
0.000144109
9.01868e-05
3.92095e-05
1.7486e-05
7.89981e-06
5.61264e-06
-6.73009e-08
5.44535e-05
0.000105198
0.000148906
0.000183098
0.00020635
0.000204406
9.821e-05
2.28525e-05
8.71377e-06
-6.0089e-08
2.57887e-05
5.11279e-05
7.56514e-05
9.89416e-05
0.000120658
0.000140492
0.000158163
0.000173514
0.000186427
0.000196842
0.000213414
0.000202391
0.000154513
0.000105295
5.29167e-05
2.8108e-05
1.53766e-05
1.18116e-05
-5.36052e-08
4.79892e-05
9.3031e-05
0.000132485
0.000164364
0.00018746
0.000199734
0.000111425
3.31163e-05
1.48651e-05
-4.74313e-08
2.27026e-05
4.50497e-05
6.67507e-05
8.7476e-05
0.000106953
0.000124938
0.000141203
0.000155616
0.000168077
0.000178518
0.000199394
0.000196182
0.000160179
0.000116714
6.493e-05
3.79935e-05
2.26417e-05
1.79128e-05
-4.23866e-08
4.23084e-05
8.22876e-05
0.000117843
0.000147368
0.000169836
0.000192311
0.000121209
4.26303e-05
2.09061e-05
-3.7359e-08
2.00216e-05
3.97626e-05
5.89936e-05
7.74532e-05
9.49245e-05
0.000111211
0.000126129
0.000139566
0.000151433
0.000161664
0.000185203
0.0001879
0.000162277
0.000124971
7.53054e-05
4.71196e-05
2.96633e-05
2.38907e-05
-3.35422e-08
3.74021e-05
7.29631e-05
0.000105016
0.000132257
0.00015381
0.000183369
0.00012809
5.13779e-05
2.68126e-05
-2.96737e-08
1.77201e-05
3.52182e-05
5.23131e-05
6.87965e-05
8.44952e-05
9.925e-05
0.000112912
0.000125385
0.00013659
0.000146465
0.000171476
0.000178549
0.000161754
0.000130584
8.41318e-05
5.5477e-05
3.64136e-05
2.9722e-05
-2.65085e-08
3.31981e-05
6.49358e-05
9.38807e-05
0.000118969
0.000139453
0.000173728
0.00013257
5.93559e-05
3.25626e-05
-2.30927e-08
1.57535e-05
3.13312e-05
4.65877e-05
6.13581e-05
7.55023e-05
8.88916e-05
0.000101404
0.000112956
0.000123479
0.000132915
0.000158549
0.000168788
0.000159358
0.000134032
9.15213e-05
6.30683e-05
4.28688e-05
3.53864e-05
-2.13097e-08
2.96038e-05
5.80438e-05
8.42491e-05
0.000107349
0.000126703
0.000163916
0.000135101
6.65728e-05
3.81372e-05
-1.98665e-08
1.4074e-05
2.80065e-05
4.16849e-05
5.49713e-05
6.7758e-05
7.99353e-05
9.14071e-05
0.000102099
0.000111958
0.000120919
0.000146574
0.000159038
0.000155669
0.00013574
9.75992e-05
6.99077e-05
4.90088e-05
4.08662e-05
-1.7383e-08
2.65298e-05
5.21246e-05
7.59202e-05
9.72065e-05
0.000115434
0.000154252
0.000136079
7.30478e-05
4.35205e-05
-1.26636e-08
1.2638e-05
2.51633e-05
3.74772e-05
4.94826e-05
6.10758e-05
7.21846e-05
8.27127e-05
9.26161e-05
0.000101834
0.000110335
0.00013562
0.000149528
0.000151136
0.000136069
0.000102497
7.60188e-05
5.48172e-05
4.61474e-05
-1.20653e-08
2.16437e-05
4.26705e-05
6.24995e-05
8.06335e-05
9.66752e-05
0.000136309
0.000134783
8.38483e-05
5.3567e-05
-7.75811e-09
9.42773e-06
1.87952e-05
2.8047e-05
3.71318e-05
4.59867e-05
5.4577e-05
6.28401e-05
7.07551e-05
7.82718e-05
8.53734e-05
0.000108341
0.000124238
0.00013528
0.000131534
0.000111428
9.02449e-05
7.01823e-05
6.06354e-05
-6.32776e-09
1.65063e-05
3.26635e-05
4.81405e-05
6.26417e-05
7.59182e-05
0.000113374
0.0001277
9.53281e-05
6.70185e-05
-4.62116e-09
7.32536e-06
1.46154e-05
2.18386e-05
2.89626e-05
3.59529e-05
4.27845e-05
4.94235e-05
5.5851e-05
6.2036e-05
6.79668e-05
8.82455e-05
0.000103837
0.000119322
0.000123004
0.000114016
9.92082e-05
8.23864e-05
7.2925e-05
-3.86317e-09
1.3061e-05
2.59126e-05
3.83533e-05
5.01993e-05
6.12947e-05
9.52995e-05
0.000118251
0.000102106
7.82132e-05
-2.8961e-09
5.88899e-06
1.17562e-05
1.75823e-05
2.33472e-05
2.90294e-05
3.46132e-05
4.00772e-05
4.54088e-05
5.05846e-05
5.55983e-05
7.33039e-05
8.78709e-05
0.000105129
0.000113245
0.000112712
0.000104056
9.15275e-05
8.29536e-05
-2.41773e-09
1.06609e-05
2.11895e-05
3.14572e-05
4.1344e-05
5.07463e-05
8.12287e-05
0.000108413
0.000105307
8.71465e-05
-1.87107e-09
4.87008e-06
9.726e-06
1.45555e-05
1.93451e-05
2.40812e-05
2.87528e-05
3.33468e-05
3.78533e-05
4.22578e-05
4.65545e-05
6.2071e-05
7.54293e-05
9.30353e-05
0.000103629
0.000109159
0.000105845
9.7877e-05
9.07752e-05
-1.59701e-09
8.92725e-06
1.77671e-05
2.64342e-05
3.48477e-05
4.29358e-05
7.0231e-05
9.90833e-05
0.000105898
9.39258e-05
-1.267e-09
4.12251e-06
8.23549e-06
1.23307e-05
1.6399e-05
2.04314e-05
2.442e-05
2.83561e-05
3.22328e-05
3.60403e-05
3.97739e-05
5.34727e-05
6.56523e-05
8.28756e-05
9.47167e-05
0.000104409
0.000105431
0.000101803
9.65398e-05
-1.09045e-09
7.63511e-06
1.52104e-05
2.26672e-05
2.99494e-05
3.7006e-05
6.15287e-05
9.05856e-05
0.00010464
9.87436e-05
-8.81374e-10
3.55731e-06
7.10797e-06
1.06463e-05
1.41659e-05
1.76606e-05
2.11246e-05
2.4552e-05
2.79376e-05
3.12751e-05
3.45605e-05
4.6756e-05
5.78572e-05
7.43448e-05
8.66758e-05
9.91023e-05
0.000103482
0.000103711
0.000100467
-7.67946e-10
6.64385e-06
1.32455e-05
1.97633e-05
2.61575e-05
3.23907e-05
5.45304e-05
8.29762e-05
0.000102112
0.000101846
-6.34508e-10
3.11792e-06
6.23108e-06
9.33547e-06
1.24264e-05
1.54994e-05
1.85505e-05
2.15752e-05
2.45698e-05
2.75301e-05
3.04526e-05
4.13965e-05
5.15346e-05
6.71351e-05
7.9497e-05
9.36167e-05
0.000100492
0.000103997
0.000102816
-5.57938e-10
5.86279e-06
1.1695e-05
1.74664e-05
2.31478e-05
2.87114e-05
4.88014e-05
7.61983e-05
9.87412e-05
0.000103501
-4.58408e-10
2.76736e-06
5.53123e-06
8.28865e-06
1.10362e-05
1.37706e-05
1.6489e-05
1.91879e-05
2.18647e-05
2.45161e-05
2.71397e-05
3.70285e-05
4.63135e-05
6.09805e-05
7.31004e-05
8.81673e-05
9.68277e-05
0.000103029
0.000103853
-4.0584e-10
5.23172e-06
1.04407e-05
1.56043e-05
2.07009e-05
2.57098e-05
4.40258e-05
7.01552e-05
9.48396e-05
0.000103977
-3.69952e-10
2.48091e-06
4.95918e-06
7.43269e-06
9.89867e-06
1.23549e-05
1.47987e-05
1.7228e-05
1.96402e-05
2.20335e-05
2.44053e-05
3.33987e-05
4.19224e-05
5.56662e-05
6.73849e-05
8.28719e-05
9.27537e-05
0.000101126
0.000103839
-3.43574e-10
4.7101e-06
9.40325e-06
1.40623e-05
1.86707e-05
2.32112e-05
3.99813e-05
6.47477e-05
9.06322e-05
0.000103521
-1.88235e-10
2.24122e-06
4.48046e-06
6.71586e-06
8.94581e-06
1.11681e-05
1.33815e-05
1.55837e-05
1.77735e-05
1.99488e-05
2.21086e-05
3.03177e-05
3.81827e-05
5.10146e-05
6.22592e-05
7.77879e-05
8.84598e-05
9.8559e-05
0.000103004
-2.01269e-10
3.78107e-06
7.55247e-06
1.13044e-05
1.50275e-05
1.87125e-05
3.2538e-05
5.41033e-05
8.05028e-05
9.99784e-05
-9.7559e-11
1.61044e-06
3.22008e-06
4.82808e-06
6.43386e-06
8.03627e-06
9.63501e-06
1.12287e-05
1.28173e-05
1.43991e-05
1.59744e-05
2.2017e-05
2.79116e-05
3.7897e-05
4.71548e-05
6.12615e-05
7.25789e-05
8.63467e-05
9.57172e-05
-7.42871e-11
2.75807e-06
5.51189e-06
8.2573e-06
1.09902e-05
1.37068e-05
2.40477e-05
4.10017e-05
6.5059e-05
9.07403e-05
-5.24131e-11
1.17205e-06
2.34373e-06
3.51469e-06
4.68459e-06
5.853e-06
7.01966e-06
8.18403e-06
9.34599e-06
1.05047e-05
1.16604e-05
1.61285e-05
2.05263e-05
2.81327e-05
3.54055e-05
4.71555e-05
5.76122e-05
7.27498e-05
8.52377e-05
-3.05801e-11
1.96305e-06
3.92423e-06
5.88172e-06
7.83372e-06
9.77859e-06
1.72294e-05
2.99132e-05
4.99066e-05
7.87702e-05
-1.965e-11
7.95517e-07
1.59091e-06
2.38607e-06
3.18088e-06
3.97518e-06
4.7689e-06
5.56185e-06
6.35401e-06
7.14506e-06
7.93512e-06
1.10112e-05
1.40659e-05
1.9299e-05
2.44099e-05
3.32515e-05
4.15658e-05
5.70007e-05
7.08118e-05
-1.32829e-11
1.21091e-06
2.4212e-06
3.63026e-06
4.8375e-06
6.04239e-06
1.06901e-05
1.89227e-05
3.3065e-05
6.19467e-05
-9.41461e-12
4.0915e-07
8.18243e-07
1.22723e-06
1.63606e-06
2.04468e-06
2.45302e-06
2.86107e-06
3.26873e-06
3.67607e-06
4.08291e-06
5.66031e-06
7.2273e-06
9.91212e-06
1.25553e-05
1.78587e-05
2.35734e-05
3.24568e-05
4.93603e-05
-9.12325e-15
4.16002e-07
8.31707e-07
1.24683e-06
1.66103e-06
2.07389e-06
3.67558e-06
6.41625e-06
1.0416e-05
2.96295e-05
0
0
0
0
0
0
0
0
0
0
0
0
0
0
0
0
0
0
0
SCALARS Displacement_Z double 1
LOOKUP_TABLE default
-0.00455917
-0.00454769
-0.00451282
-0.00445436
-0.00437054
-0.00425737
-0.00411181
-0.00392991
-0.00368569
-0.00336376
-0.00284722
-0.00178302
-0.00135732
-0.000957055
-0.000749962
-0.000545057
-0.000436825
-0.00032887
-0.000259415
-0.00441873
-0.00437257
-0.00422824
-0.00397013
-0.00353708
-0.00280253
-0.00135415
-0.000749721
-0.000436584
-0.000259479
-0.00426073
-0.00424903
-0.00421351
-0.00415384
-0.00406768
-0.00395213
-0.0038024
-0.00361512
-0.0033822
-0.00307981
-0.00275245
-0.00180427
-0.00135445
-0.000957686
-0.000749436
-0.000544386
-0.000436421
-0.00032874
-0.000259528
-0.00408745
-0.00403992
-0.00389206
-0.00362848
-0.0032189
-0.00268437
-0.00135629
-0.000749699
-0.000436305
-0.000259632
-0.00390429
-0.0038925
-0.00385647
-0.00379609
-0.00370957
-0.00359512
-0.00345108
-0.00327712
-0.00307223
-0.0028428
-0.0026059
-0.00181388
-0.00135879
-0.000961064
-0.000750196
-0.000544207
-0.000436216
-0.000328637
-0.000259737
-0.00371635
-0.00366949
-0.00352617
-0.00328026
-0.00293413
-0.00252804
-0.0013623
-0.000750605
-0.000436143
-0.000259836
-0.00352837
-0.00351713
-0.00348315
-0.00342642
-0.0033465
-0.00324325
-0.00311752
-0.00297044
-0.00280608
-0.00262763
-0.00244446
-0.00179477
-0.00136416
-0.000965852
-0.000751396
-0.000544583
-0.00043606
-0.000328586
-0.00025995
-0.00334459
-0.00330187
-0.00317386
-0.00296361
-0.0026836
-0.00236586
-0.00136445
-0.000751876
-0.000436009
-0.000260051
-0.0031676
-0.00315765
-0.0031279
-0.00307853
-0.00301001
-0.00292294
-0.00281893
-0.00269994
-0.0025691
-0.00242894
-0.00228482
-0.00175279
-0.00136223
-0.000970192
-0.000752663
-0.000545358
-0.000435944
-0.000328575
-0.000260165
-0.00299959
-0.00296317
-0.00285565
-0.00268343
-0.00246004
-0.00220864
-0.00135755
-0.000753148
-0.00043591
-0.000260274
-0.00284142
-0.00283307
-0.00280834
-0.00276747
-0.00271125
-0.00264041
-0.00255663
-0.00246162
-0.00235772
-0.00224677
-0.00213221
-0.00169595
-0.00135026
-0.000972276
-0.000753776
-0.000546334
-0.000435869
-0.000328592
-0.000260392
-0.00269356
-0.00266375
-0.00257644
-0.00243821
-0.00226056
-0.00206015
-0.00134065
-0.000754097
-0.000435842
-0.000260514
-0.00255599
-0.00254921
-0.00252923
-0.00249627
-0.0024511
-0.00239441
-0.00232758
-0.00225198
-0.0021693
-0.00208092
-0.00198916
-0.00163052
-0.00132873
-0.000971
-0.000754391
-0.000547332
-0.000435814
-0.000328619
-0.000260639
-0.00242829
-0.00240437
-0.00233453
-0.00222436
-0.00208286
-0.00192208
-0.00131503
-0.000754344
-0.000435778
-0.000260775
-0.00231004
-0.00230462
-0.00228867
-0.00226237
-0.00222635
-0.0021812
-0.00212797
-0.00206769
-0.00200161
-0.00193077
-0.00185679
-0.00156097
-0.00129945
-0.000965951
-0.000754124
-0.000548186
-0.000435745
-0.000328643
-0.000260912
-0.00220052
-0.00218146
-0.00212583
-0.002038
-0.00192479
-0.00179498
-0.00128268
-0.000753526
-0.000435684
-0.000261065
-0.00209919
-0.00209487
-0.00208216
-0.0020612
-0.00203249
-0.00199646
-0.00195393
-0.00190564
-0.00185252
-0.00179536
-0.00173531
-0.00149034
-0.00126448
-0.000957204
-0.000752648
-0.000548747
-0.000435624
-0.000328647
-0.000261217
-0.00200529
-0.00199009
-0.00194568
-0.00187536
-0.00178424
-0.00167874
-0.00124562
-0.000751368
-0.000435521
-0.000261387
-0.0019183
-0.00191485
-0.0019047
-0.00188793
-0.00186493
-0.00183604
-0.00180185
-0.00176291
-0.00171992
-0.00167347
-0.0016244
-0.00142062
-0.00122575
-0.00094512
-0.000749741
-0.000548884
-0.000435412
-0.000328615
-0.000261556
-0.00183753
-0.00182535
-0.00178969
-0.00173303
-0.00165916
-0.00157282
-0.00120561
-0.000747707
-0.000435249
-0.000261744
-0.00176253
-0.00175975
-0.00175158
-0.00173808
-0.00171954
-0.00169621
-0.00166852
-0.00163689
-0.00160184
-0.00156382
-0.00152344
-0.00135306
-0.00118482
-0.000930201
-0.000745294
-0.000548492
-0.000435071
-0.000328531
-0.000261931
-0.00169269
-0.00168285
-0.00165401
-0.001608
-0.00154765
-0.0014765
-0.00116406
-0.000742487
-0.000434831
-0.000262135
-0.00162763
-0.00162539
-0.00161876
-0.00160781
-0.00159274
-0.00157375
-0.00155115
-0.00152525
-0.00149645
-0.00146509
-0.00143164
-0.00128842
-0.00114293
-0.000912985
-0.000739295
-0.000547494
-0.000434564
-0.000328379
-0.000262338
-0.00156688
-0.00155887
-0.00153535
-0.00149768
-0.00144799
-0.00138893
-0.00112202
-0.00073574
-0.000434229
-0.000262556
-0.0015101
-0.00150826
-0.00150285
-0.00149388
-0.00148154
-0.00146594
-0.00144735
-0.00142597
-0.00140213
-0.00137607
-0.00134815
-0.0012271
-0.00110098
-0.000893995
-0.000731813
-0.00054584
-0.000433855
-0.000328146
-0.000262775
-0.0014569
-0.00145033
-0.00143098
-0.00139989
-0.00135865
-0.00130927
-0.00108029
-0.000727563
-0.000433408
-0.000263003
-0.00140702
-0.0014055
-0.00140104
-0.00139364
-0.00138343
-0.00137052
-0.0013551
-0.00133732
-0.00131742
-0.00129562
-0.00127215
-0.00116926
-0.00105963
-0.000873701
-0.000722967
-0.000543506
-0.000432911
-0.000327817
-0.000263234
-0.00136013
-0.00135469
-0.00133864
-0.00131276
-0.00127828
-0.00123672
-0.0010394
-0.000718094
-0.000432338
-0.000263469
-0.00131602
-0.00131477
-0.00131105
-0.0013049
-0.00129639
-0.00128562
-0.00127271
-0.00125781
-0.00124108
-0.00122271
-0.00120287
-0.00111492
-0.00101932
-0.000852512
-0.000712908
-0.00054049
-0.000431706
-0.000327381
-0.000263706
-0.00127445
-0.0012699
-0.00125648
-0.00123477
-0.00120571
-0.0011705
-0.000999703
-0.000707494
-0.000430994
-0.000263944
-0.00123523
-0.00123416
-0.00123105
-0.00122587
-0.00121873
-0.00120966
-0.00119879
-0.00118619
-0.00117203
-0.00115643
-0.00113956
-0.001064
-0.00098032
-0.000830768
-0.000701805
-0.000536806
-0.000430215
-0.000326828
-0.000264184
-0.00112965
-0.00112641
-0.00111681
-0.00110119
-0.00108013
-0.0010543
-0.000925132
-0.000683787
-0.000427386
-0.000264864
-0.00103947
-0.0010388
-0.00103689
-0.00103368
-0.00102927
-0.00102362
-0.00101685
-0.00100894
-0.001
-0.000990095
-0.000979292
-0.000929894
-0.000872837
-0.000764644
-0.000663977
-0.000522105
-0.000423861
-0.000324384
-0.000265554
-0.000961382
-0.00095932
-0.000953194
-0.000943177
-0.000929555
-0.000912672
-0.000824708
-0.00064363
-0.000419628
-0.000266092
-0.000893188
-0.000892759
-0.000891507
-0.000889413
-0.000886517
-0.000882811
-0.000878343
-0.000873114
-0.000867182
-0.000860581
-0.00085335
-0.000819691
-0.000779723
-0.000700576
-0.000622374
-0.000502866
-0.000414673
-0.000320629
-0.000266585
-0.000833
-0.000831621
-0.000827512
-0.000820768
-0.000811542
-0.000800008
-0.000738205
-0.000601251
-0.000409076
-0.000266843
-0.000779485
-0.000779192
-0.000778335
-0.000776902
-0.000774916
-0.000772371
-0.000769296
-0.000765688
-0.000761581
-0.000756996
-0.00075195
-0.000728251
-0.000699542
-0.000640748
-0.000579842
-0.000480459
-0.000402826
-0.000315504
-0.000266982
-0.000731488
-0.000730526
-0.000727656
-0.000722931
-0.000716439
-0.000708283
-0.000663658
-0.000558935
-0.000396046
-0.000266829
-0.000688175
-0.000687968
-0.00068736
-0.000686343
-0.000684931
-0.000683121
-0.000680928
-0.000678353
-0.000675415
-0.000672123
-0.000668493
-0.000651326
-0.000630211
-0.000585848
-0.000538132
-0.000456092
-0.000388733
-0.000309037
-0.000266485
-0.000648812
-0.000648119
-0.000646048
-0.000642633
-0.000637925
-0.000631988
-0.000598991
-0.000517993
-0.000381012
-0.000265811
-0.00061285
-0.000612699
-0.000612254
-0.000611511
-0.000610478
-0.000609152
-0.000607545
-0.000605655
-0.000603495
-0.000601069
-0.000598388
-0.00058565
-0.000569798
-0.000535825
-0.00049818
-0.000430714
-0.000372888
-0.00030132
-0.000264889
-0.0005798
-0.000579287
-0.000577754
-0.000575221
-0.000571721
-0.000567295
-0.000542396
-0.000479074
-0.000364474
-0.000263619
-0.000549291
-0.000549178
-0.000548845
-0.000548289
-0.000547515
-0.000546522
-0.000545316
-0.000543898
-0.000542274
-0.000540447
-0.000538424
-0.00052878
-0.000516667
-0.000490308
-0.000460403
-0.000405019
-0.000355779
-0.000292483
-0.000262065
-0.000520987
-0.000520599
-0.00051944
-0.000517522
-0.000514866
-0.000511502
-0.000492394
-0.000442421
-0.000346897
-0.000260159
-0.000494628
-0.000494543
-0.000494289
-0.000493864
-0.000493274
-0.000492515
-0.000491594
-0.000490509
-0.000489266
-0.000487866
-0.000486313
-0.000478889
-0.000469498
-0.000448817
-0.000424917
-0.000379485
-0.000337837
-0.000282668
-0.000257951
-0.000469979
-0.000469681
-0.000468789
-0.000467312
-0.000465265
-0.000462666
-0.000447798
-0.000408052
-0.000328673
-0.000255401
-0.000446852
-0.000446785
-0.000446588
-0.00044626
-0.000445802
-0.000445214
-0.0004445
-0.000443658
-0.000442693
-0.000441604
-0.000440397
-0.000434605
-0.000427239
-0.000410866
-0.00039167
-0.000354425
-0.000319411
-0.000272016
-0.000252548
-0.000425076
-0.000424843
-0.000424148
-0.000422996
-0.000421397
-0.000419364
-0.000407672
-0.000375867
-0.00031011
-0.000249374
-0.000404514
-0.000404462
-0.000404308
-0.000404051
-0.000403692
-0.000403232
-0.000402671
-0.000402011
-0.000401253
-0.000400397
-0.000399445
-0.000394886
-0.000389056
-0.000376002
-0.000360529
-0.000330031
-0.00030077
-0.000260658
-0.000245908
-0.000385042
-0.000384858
-0.000384311
-0.000383404
-0.000382144
-0.000380541
-0.000371277
-0.000345707
-0.000291437
-0.000242151
-0.000366555
-0.000366512
-0.000366391
-0.000366186
-0.000365903
-0.000365538
-0.000365096
-0.000364572
-0.000363974
-0.000363298
-0.000362549
-0.000358918
-0.000354297
-0.000343819
-0.000331322
-0.00030641
-0.000282106
-0.000248709
-0.000238121
-0.000305752
-0.000305646
-0.000305326
-0.000304794
-0.000304053
-0.000303107
-0.00029762