# vtk DataFile Version 2.0
./vtk
ASCII

DATASET UNSTRUCTURED_GRID
POINTS 889 double
0 0 0.0
0.5 0 0.0
1 0 0.0
1.5 0 0.0
2 0 0.0
2.5 0 0.0
3 0 0.0
3.5 0 0.0
4 0 0.0
4.5 0 0.0
5 0 0.0
6.9457 0 0.0
8.8914 0 0.0
12.3514 0 0.0
15.8114 0 0.0
21.9642 0 0.0
28.1171 0 0.0
39.0585 0 0.0
50 0 0.0
0 -0.5 0.0
1 -0.5 0.0
2 -0.5 0.0
3 -0.5 0.0
4 -0.5 0.0
5 -0.5 0.0
8.8914 -0.5 0.0
15.8114 -0.5 0.0
28.1171 -0.5 0.0
50 -0.5 0.0
0 -1 0.0
0.5 -1 0.0
1 -1 0.0
1.5 -1 0.0
2 -1 0.0
2.5 -1 0.0
3 -1 0.0
3.5 -1 0.0
4 -1 0.0
4.5 -1 0.0
5 -1 0.0
6.9457 -1 0.0
8.8914 -1 0.0
12.3514 -1 0.0
15.8114 -1 0.0
21.9642 -1 0.0
28.1171 -1 0.0
39.0585 -1 0.0
50 -1 0.0
0 -1.5 0.0
1 -1.5 0.0
2 -1.5 0.0
3 -1.5 0.0
4 -1.5 0.0
5 -1.5 0.0
8.8914 -1.5 0.0
15.8114 -1.5 0.0
28.1171 -1.5 0.0
50 -1.5 0.0
0 -2 0.0
0.5 -2 0.0
1 -2 0.0
1.5 -2 0.0
2 -2 0.0
2.5 -2 0.0
3 -2 0.0
3.5 -2 0.0
4 -2 0.0
4.5 -2 0.0
5 -2 0.0
6.9457 -2 0.0
8.8914 -2 0.0
12.3514 -2 0.0
15.8114 -2 0.0
21.9642 -2 0.0
28.1171 -2 0.0
39.0585 -2 0.0
50 -2 0.0
0 -2.5 0.0
1 -2.5 0.0
2 -2.5 0.0
3 -2.5 0.0
4 -2.5 0.0
5 -2.5 0.0
8.8914 -2.5 0.0
15.8114 -2.5 0.0
28.1171 -2.5 0.0
50 -2.5 0.0
0 -3 0.0
0.5 -3 0.0
1 -3 0.0
1.5 -3 0.0
2 -3 0.0
2.5 -3 0.0
3 -3 0.0
3.5 -3 0.0
4 -3 0.0
4.5 -3 0.0
5 -3 0.0
6.9457 -3 0.0
8.8914 -3 0.0
12.3514 -3 0.0
15.8114 -3 0.0
21.9642 -3 0.0
28.1171 -3 0.0
39.0585 -3 0.0
50 -3 0.0
0 -3.5 0.0
1 -3.5 0.0
2 -3.5 0.0
3 -3.5 0.0
4 -3.5 0.0
5 -3.5 0.0
8.8914 -3.5 0.0
15.8114 -3.5 0.0
28.1171 -3.5 0.0
50 -3.5 0.0
0 -4 0.0
0.5 -4 0.0
1 -4 0.0
1.5 -4 0.0
2 -4 0.0
2.5 -4 0.0
3 -4 0.0
3.5 -4 0.0
4 -4 0.0
4.5 -4 0.0
5 -4 0.0
6.9457 -4 0.0
8.8914 -4 0.0
12.3514 -4 0.0
15.8114 -4 0.0
21.9642 -4 0.0
28.1171 -4 0.0
39.0585 -4 0.0
50 -4 0.0
0 -4.5 0.0
1 -4.5 0.0
2 -4.5 0.0
3 -4.5 0.0
4 -4.5 0.0
5 -4.5 0.0
8.8914 -4.5 0.0
15.8114 -4.5 0.0
28.1171 -4.5 0.0
50 -4.5 0.0
0 -5 0.0
0.5 -5 0.0
1 -5 0.0
1.5 -5 0.0
2 -5 0.0
2.5 -5 0.0
3 -5 0.0
3.5 -5 0.0
4 -5 0.0
4.5 -5 0.0
5 -5 0.0
6.9457 -5 0.0
8.8914 -5 0.0
12.3514 -5 0.0
15.8114 -5 0.0
21.9642 -5 0.0
28.1171 -5 0.0
39.0585 -5 0.0
50 -5 0.0
0 -5.5 0.0
1 -5.5 0.0
2 -5.5 0.0
3 -5.5 0.0
4 -5.5 0.0
5 -5.5 0.0
8.8914 -5.5 0.0
15.8114 -5.5 0.0
28.1171 -5.5 0.0
50 -5.5 0.0
0 -6 0.0
0.5 -6 0.0
1 -6 0.0
1.5 -6 0.0
2 -6 0.0
2.5 -6 0.0
3 -6 0.0
3.5 -6 0.0
4 -6 0.0
4.5 -6 0.0
5 -6 0.0
6.9457 -6 0.0
8.8914 -6 0.0
12.3514 -6 0.0
15.8114 -6 0.0
21.9642 -6 0.0
28.1171 -6 0.0
39.0585 -6 0.0
50 -6 0.0
0 -6.5 0.0
1 -6.5 0.0
2 -6.5 0.0
3 -6.5 0.0
4 -6.5 0.0
5 -6.5 0.0
8.8914 -6.5 0.0
15.8114 -6.5 0.0
28.1171 -6.5 0.0
50 -6.5 0.0
0 -7 0.0
0.5 -7 0.0
1 -7 0.0
1.5 -7 0.0
2 -7 0.0
2.5 -7 0.0
3 -7 0.0
3.5 -7 0.0
4 -7 0.0
4.5 -7 0.0
5 -7 0.0
6.9457 -7 0.0
8.8914 -7 0.0
12.3514 -7 0.0
15.8114 -7 0.0
21.9642 -7 0.0
28.1171 -7 0.0
39.0585 -7 0.0
50 -7 0.0
0 -7.5 0.0
1 -7.5 0.0
2 -7.5 0.0
3 -7.5 0.0
4 -7.5 0.0
5 -7.5 0.0
8.8914 -7.5 0.0
15.8114 -7.5 0.0
28.1171 -7.5 0.0
50 -7.5 0.0
0 -8 0.0
0.5 -8 0.0
1 -8 0.0
1.5 -8 0.0
2 -8 0.0
2.5 -8 0.0
3 -8 0.0
3.5 -8 0.0
4 -8 0.0
4.5 -8 0.0
5 -8 0.0
6.9457 -8 0.0
8.8914 -8 0.0
12.3514 -8 0.0
15.8114 -8 0.0
21.9642 -8 0.0
28.1171 -8 0.0
39.0585 -8 0.0
50 -8 0.0
0 -8.5 0.0
1 -8.5 0.0
2 -8.5 0.0
3 -8.5 0.0
4 -8.5 0.0
5 -8.5 0.0
8.8914 -8.5 0.0
15.8114 -8.5 0.0
28.1171 -8.5 0.0
50 -8.5 0.0
0 -9 0.0
0.5 -9 0.0
1 -9 0.0
1.5 -9 0.0
2 -9 0.0
2.5 -9 0.0
3 -9 0.0
3.5 -9 0.0
4 -9 0.0
4.5 -9 0.0
5 -9 0.0
6.9457 -9 0.0
8.8914 -9 0.0
12.3514 -9 0.0
15.8114 -9 0.0
21.9642 -9 0.0
28.1171 -9 0.0
39.0585 -9 0.0
50 -9 0.0
0 -9.5 0.0
1 -9.5 0.0
2 -9.5 0.0
3 -9.5 0.0
4 -9.5 0.0
5 -9.5 0.0
8.8914 -9.5 0.0
15.8114 -9.5 0.0
28.1171 -9.5 0.0
50 -9.5 0.0
0 -10 0.0
0.5 -10 0.0
1 -10 0.0
1.5 -10 0.0
2 -10 0.0
2.5 -10 0.0
3 -10 0.0
3.5 -10 0.0
4 -10 0.0
4.5 -10 0.0
5 -10 0.0
6.9457 -10 0.0
8.8914 -10 0.0
12.3514 -10 0.0
15.8114 -10 0.0
21.9642 -10 0.0
28.1171 -10 0.0
39.0585 -10 0.0
50 -10 0.0
0 -10.5 0.0
1 -10.5 0.0
2 -10.5 0.0
3 -10.5 0.0
4 -10.5 0.0
5 -10.5 0.0
8.8914 -10.5 0.0
15.8114 -10.5 0.0
28.1171 -10.5 0.0
50 -10.5 0.0
0 -11 0.0
0.5 -11 0.0
1 -11 0.0
1.5 -11 0.0
2 -11 0.0
2.5 -11 0.0
3 -11 0.0
3.5 -11 0.0
4 -11 0.0
4.5 -11 0.0
5 -11 0.0
6.9457 -11 0.0
8.8914 -11 0.0
12.3514 -11 0.0
15.8114 -11 0.0
21.9642 -11 0.0
28.1171 -11 0.0
39.0585 -11 0.0
50 -11 0.0
0 -11.5 0.0
1 -11.5 0.0
2 -11.5 0.0
3 -11.5 0.0
4 -11.5 0.0
5 -11.5 0.0
8.8914 -11.5 0.0
15.8114 -11.5 0.0
28.1171 -11.5 0.0
50 -11.5 0.0
0 -12 0.0
0.5 -12 0.0
1 -12 0.0
1.5 -12 0.0
2 -12 0.0
2.5 -12 0.0
3 -12 0.0
3.5 -12 0.0
4 -12 0.0
4.5 -12 0.0
5 -12 0.0
6.9457 -12 0.0
8.8914 -12 0.0
12.3514 -12 0.0
15.8114 -12 0.0
21.9642 -12 0.0
28.1171 -12 0.0
39.0585 -12 0.0
50 -12 0.0
0 -12.5 0.0
1 -12.5 0.0
2 -12.5 0.0
3 -12.5 0.0
4 -12.5 0.0
5 -12.5 0.0
8.8914 -12.5 0.0
15.8114 -12.5 0.0
28.1171 -12.5 0.0
50 -12.5 0.0
0 -13 0.0
0.5 -13 0.0
1 -13 0.0
1.5 -13 0.0
2 -13 0.0
2.5 -13 0.0
3 -13 0.0
3.5 -13 0.0
4 -13 0.0
4.5 -13 0.0
5 -13 0.0
6.9457 -13 0.0
8.8914 -13 0.0
12.3514 -13 0.0
15.8114 -13 0.0
21.9642 -13 0.0
28.1171 -13 0.0
39.0585 -13 0.0
50 -13 0.0
0 -13.5 0.0
1 -13.5 0.0
2 -13.5 0.0
3 -13.5 0.0
4 -13.5 0.0
5 -13.5 0.0
8.8914 -13.5 0.0
15.8114 -13.5 0.0
28.1171 -13.5 0.0
50 -13.5 0.0
0 -14 0.0
0.5 -14 0.0
1 -14 0.0
1.5 -14 0.0
2 -14 0.0
2.5 -14 0.0
3 -14 0.0
3.5 -14 0.0
4 -14 0.0
4.5 -14 0.0
5 -14 0.0
6.9457 -14 0.0
8.8914 -14 0.0
12.3514 -14 0.0
15.8114 -14 0.0
21.9642 -14 0.0
28.1171 -14 0.0
39.0585 -14 0.0
50 -14 0.0
0 -14.5 0.0
1 -14.5 0.0
2 -14.5 0.0
3 -14.5 0.0
4 -14.5 0.0
5 -14.5 0.0
8.8914 -14.5 0.0
15.8114 -14.5 0.0
28.1171 -14.5 0.0
50 -14.5 0.0
0 -15 0.0
0.5 -15 0.0
1 -15 0.0
1.5 -15 0.0
2 -15 0.0
2.5 -15 0.0
3 -15 0.0
3.5 -15 0.0
4 -15 0.0
4.5 -15 0.0
5 -15 0.0
6.9457 -15 0.0
8.8914 -15 0.0
12.3514 -15 0.0
15.8114 -15 0.0
21.9642 -15 0.0
28.1171 -15 0.0
39.0585 -15 0.0
50 -15 0.0
0 -16.5 0.0
1 -16.5 0.0
2 -16.5 0.0
3 -16.5 0.0
4 -16.5 0.0
5 -16.5 0.0
8.8914 -16.5 0.0
15.8114 -16.5 0.0
28.1171 -16.5 0.0
50 -16.5 0.0
0 -18 0.0
0.5 -18 0.0
1 -18 0.0
1.5 -18 0.0
2 -18 0.0
2.5 -18 0.0
3 -18 0.0
3.5 -18 0.0
4 -18 0.0
4.5 -18 0.0
5 -18 0.0
6.9457 -18 0.0
8.8914 -18 0.0
12.3514 -18 0.0
15.8114 -18 0.0
21.9642 -18 0.0
28.1171 -18 0.0
39.0585 -18 0.0
50 -18 0.0
0 -19.5 0.0
1 -19.5 0.0
2 -19.5 0.0
3 -19.5 0.0
4 -19.5 0.0
5 -19.5 0.0
8.8914 -19.5 0.0
15.8114 -19.5 0.0
28.1171 -19.5 0.0
50 -19.5 0.0
0 -21 0.0
0.5 -21 0.0
1 -21 0.0
1.5 -21 0.0
2 -21 0.0
2.5 -21 0.0
3 -21 0.0
3.5 -21 0.0
4 -21 0.0
4.5 -21 0.0
5 -21 0.0
6.9457 -21 0.0
8.8914 -21 0.0
12.3514 -21 0.0
15.8114 -21 0.0
21.9642 -21 0.0
28.1171 -21 0.0
39.0585 -21 0.0
50 -21 0.0
0 -22.5 0.0
1 -22.5 0.0
2 -22.5 0.0
3 -22.5 0.0
4 -22.5 0.0
5 -22.5 0.0
8.8914 -22.5 0.0
15.8114 -22.5 0.0
28.1171 -22.5 0.0
50 -22.5 0.0
0 -24 0.0
0.5 -24 0.0
1 -24 0.0
1.5 -24 0.0
2 -24 0.0
2.5 -24 0.0
3 -24 0.0
3.5 -24 0.0
4 -24 0.0
4.5 -24 0.0
5 -24 0.0
6.9457 -24 0.0
8.8914 -24 0.0
12.3514 -24 0.0
15.8114 -24 0.0
21.9642 -24 0.0
28.1171 -24 0.0
39.0585 -24 0.0
50 -24 0.0
0 -25.5 0.0
1 -25.5 0.0
2 -25.5 0.0
3 -25.5 0.0
4 -25.5 0.0
5 -25.5 0.0
8.8914 -25.5 0.0
15.8114 -25.5 0.0
28.1171 -25.5 0.0
50 -25.5 0.0
0 -27 0.0
0.5 -27 0.0
1 -27 0.0
1.5 -27 0.0
2 -27 0.0
2.5 -27 0.0
3 -27 0.0
3.5 -27 0.0
4 -27 0.0
4.5 -27 0.0
5 -27 0.0
6.9457 -27 0.0
8.8914 -27 0.0
12.3514 -27 0.0
15.8114 -27 0.0
21.9642 -27 0.0
28.1171 -27 0.0
39.0585 -27 0.0
50 -27 0.0
0 -28.5 0.0
1 -28.5 0.0
2 -28.5 0.0
3 -28.5 0.0
4 -28.5 0.0
5 -28.5 0.0
8.8914 -28.5 0.0
15.8114 -28.5 0.0
28.1171 -28.5 0.0
50 -28.5 0.0
0 -30 0.0
0.5 -30 0.0
1 -30 0.0
1.5 -30 0.0
2 -30 0.0
2.5 -30 0.0
3 -30 0.0
3.5 -30 0.0
4 -30 0.0
4.5 -30 0.0
5 -30 0.0
6.9457 -30 0.0
8.8914 -30 0.0
12.3514 -30 0.0
15.8114 -30 0.0
21.9642 -30 0.0
28.1171 -30 0.0
39.0585 -30 0.0
50 -30 0.0
0 -31.5 0.0
1 -31.5 0.0
2 -31.5 0.0
3 -31.5 0.0
4 -31.5 0.0
5 -31.5 0.0
8.8914 -31.5 0.0
15.8114 -31.5 0.0
28.1171 -31.5 0.0
50 -31.5 0.0
0 -33 0.0
0.5 -33 0.0
1 -33 0.0
1.5 -33 0.0
2 -33 0.0
2.5 -33 0.0
3 -33 0.0
3.5 -33 0.0
4 -33 0.0
4.5 -33 0.0
5 -33 0.0
6.9457 -33 0.0
8.8914 -33 0.0
12.3514 -33 0.0
15.8114 -33 0.0
21.9642 -33 0.0
28.1171 -33 0.0
39.0585 -33 0.0
50 -33 0.0
0 -34.5 0.0
1 -34.5 0.0
2 -34.5 0.0
3 -34.5 0.0
4 -34.5 0.0
5 -34.5 0.0
8.8914 -34.5 0.0
15.8114 -34.5 0.0
28.1171 -34.5 0.0
50 -34.5 0.0
0 -36 0.0
0.5 -36 0.0
1 -36 0.0
1.5 -36 0.0
2 -36 0.0
2.5 -36 0.0
3 -36 0.0
3.5 -36 0.0
4 -36 0.0
4.5 -36 0.0
5 -36 0.0
6.9457 -36 0.0
8.8914 -36 0.0
12.3514 -36 0.0
15.8114 -36 0.0
21.9642 -36 0.0
28.1171 -36 0.0
39.0585 -36 0.0
50 -36 0.0
0 -37.5 0.0
1 -37.5 0.0
2 -37.5 0.0
3 -37.5 0.0
4 -37.5 0.0
5 -37.5 0.0
8.8914 -37.5 0.0
15.8114 -37.5 0.0
28.1171 -37.5 0.0
50 -37.5 0.0
0 -39 0.0
0.5 -39 0.0
1 -39 0.0
1.5 -39 0.0
2 -39 0.0
2.5 -39 0.0
3 -39 0.0
3.5 -39 0.0
4 -39 0.0
4.5 -39 0.0
5 -39 0.0
6.9457 -39 0.0
8.8914 -39 0.0
12.3514 -39 0.0
15.8114 -39 0.0
21.9642 -39 0.0
28.1171 -39 0.0
39.0585 -39 0.0
50 -39 0.0
0 -40.5 0.0
1 -40.5 0.0
2 -40.5 0.0
3 -40.5 0.0
4 -40.5 0.0
5 -40.5 0.0
8.8914 -40.5 0.0
15.8114 -40.5 0.0
28.1171 -40.5 0.0
50 -40.5 0.0
0 -42 0.0
0.5 -42 0.0
1 -42 0.0
1.5 -42 0.0
2 -42 0.0
2.5 -42 0.0
3 -42 0.0
3.5 -42 0.0
4 -42 0.0
4.5 -42 0.0
5 -42 0.0
6.9457 -42 0.0
8.8914 -42 0.0
12.3514 -42 0.0
15.8114 -42 0.0
21.9642 -42 0.0
28.1171 -42 0.0
39.0585 -42 0.0
50 -42 0.0
0 -43.5 0.0
1 -43.5 0.0
2 -43.5 0.0
3 -43.5 0.0
4 -43.5 0.0
5 -43.5 0.0
8.8914 -43.5 0.0
15.8114 -43.5 0.0
28.1171 -43.5 0.0
50 -43.5 0.0
0 -45 0.0
0.5 -45 0.0
1 -45 0.0
1.5 -45 0.0
2 -45 0.0
2.5 -45 0.0
3 -45 0.0
3.5 -45 0.0
4 -45 0.0
4.5 -45 0.0
5 -45 0.0
6.9457 -45 0.0
8.8914 -45 0.0
12.3514 -45 0.0
15.8114 -45 0.0
21.9642 -45 0.0
28.1171 -45 0.0
39.0585 -45 0.0
50 -45 0.0
0 -50.5 0.0
1 -50.5 0.0
2 -50.5 0.0
3 -50.5 0.0
4 -50.5 0.0
5 -50.5 0.0
8.8914 -50.5 0.0
15.8114 -50.5 0.0
28.1171 -50.5 0.0
50 -50.5 0.0
0 -56 0.0
0.5 -56 0.0
1 -56 0.0
1.5 -56 0.0
2 -56 0.0
2.5 -56 0.0
3 -56 0.0
3.5 -56 0.0
4 -56 0.0
4.5 -56 0.0
5 -56 0.0
6.9457 -56 0.0
8.8914 -56 0.0
12.3514 -56 0.0
15.8114 -56 0.0
21.9642 -56 0.0
28.1171 -56 0.0
39.0585 -56 0.0
50 -56 0.0
0 -61.5 0.0
1 -61.5 0.0
2 -61.5 0.0
3 -61.5 0.0
4 -61.5 0.0
5 -61.5 0.0
8.8914 -61.5 0.0
15.8114 -61.5 0.0
28.1171 -61.5 0.0
[...]
POINT_DATA 889
SCALARS Displacement_R double 1
LOOKUP_TABLE default
0
-0.000929129
-0.00184738
-0.00274432
-0.00360865
-0.00443752
-0.00521816
-0.00595952
-0.00661834
-0.00714289
-0.00753978
-0.00796032
-0.00763389
-0.00676781
-0.00577648
-0.00450046
-0.00326668
-0.00158393
0
0
-0.00129229
-0.00251169
-0.00357947
-0.00438506
-0.00495045
-0.00584114
-0.00468533
-0.0027618
0
0
-0.000403725
-0.000799139
-0.00118047
-0.0015376
-0.00186281
-0.00214325
-0.00238164
-0.00256783
-0.00270104
-0.0029151
-0.00378095
-0.00409928
-0.00394673
-0.00360919
-0.00296895
-0.00226034
-0.00111003
0
0
-0.000357171
-0.000671598
-0.000904305
-0.00104811
-0.0012623
-0.00243804
-0.00253329
-0.00175657
0
0
2.3374e-05
4.91824e-05
7.79061e-05
0.000112999
0.00015629
0.000204159
0.000249807
0.000275791
0.000262873
0.000203881
-0.000321537
-0.000824615
-0.00126534
-0.0014678
-0.00148039
-0.00125626
-0.000646166
0
0
0.00043633
0.00085888
0.00124133
0.00152449
0.00161432
0.000758305
-0.000415016
-0.000759357
0
0
0.000416671
0.000827288
0.00122708
0.00160861
0.00196624
0.00228942
0.00256812
0.00279126
0.00295058
0.00304709
0.00288835
0.00233269
0.00134974
0.000627898
-1.87022e-05
-0.000265359
-0.000188366
0
0
0.00124479
0.00241283
0.0034195
0.00417495
0.00460156
0.00393019
0.00165415
0.000220402
0
0
0.000862931
0.00171219
0.00253707
0.00332149
0.00405125
0.00471059
0.00528396
0.00576324
0.00613342
0.00638882
0.00636468
0.00555921
0.00396026
0.0026705
0.00142969
0.000703897
0.000267021
0
0
0.0016837
0.0032617
0.00462357
0.00566398
0.00630186
0.00581881
0.00304994
0.000986874
0
0
0.00082502
0.00163602
0.00242206
0.00316771
0.00386266
0.00449307
0.00504636
0.00551128
0.00588819
0.00617411
0.00649314
0.00600079
0.00462207
0.00341311
0.00205995
0.00126831
0.000540905
0
0
0.0015765
0.00305382
0.00433606
0.00534226
0.00602635
0.00612063
0.00373644
0.00153997
0
0
0.000761992
0.0015114
0.00223822
0.00293014
0.00357733
0.00416931
0.00469722
0.00515719
0.00554415
0.00585976
0.00640895
0.00619205
0.00514015
0.0040465
0.00268598
0.00181158
0.00081445
0
0
0.00144448
0.00280403
0.00399991
0.00497147
0.00568566
0.00623782
0.00433715
0.00208054
0
0
0.000694654
0.00137887
0.00204414
0.00268044
0.00327988
0.00383485
0.00433889
0.00478795
0.00517917
0.00551175
0.00622855
0.00625759
0.00555037
0.00461924
0.00330562
0.0023507
0.00108801
0
0
0.00131653
0.00256374
0.00367887
0.00461435
0.0053421
0.00626987
0.00489126
0.00262129
0
0
0.000633677
0.00125892
0.0018689
0.00245574
0.00301294
0.00353468
0.00401563
0.00445256
0.00484289
0.00518522
0.00603206
0.00627424
0.00590345
0.00516072
0.00392719
0.00289419
0.00136335
0
0
0.00120713
0.00235888
0.0034053
0.00430791
0.00504212
0.0062849
0.0054289
0.00316986
0
0
0.000584211
0.00116174
0.00172711
0.00227406
0.00279741
0.00329244
0.00375478
0.00418163
0.0045707
0.00492038
0.0058754
0.00630279
0.00624807
0.00570137
0.00456202
0.00344893
0.00164249
0
0
0.00112356
0.00220304
0.00319837
0.00407794
0.00482011
0.0063382
0.00598144
0.00373289
0
0
0.000549164
0.001093
0.00162711
0.00214649
0.00264693
0.00312456
0.00357575
0.00399805
0.00438935
0.00474805
0.00580263
0.00639435
0.00663075
0.00627318
0.00522305
0.00402132
0.00192749
0
0
0.00107077
0.00210603
0.00307319
0.00394577
0.00470454
0.00647827
0.0065816
0.00431663
0
0
0.000530856
0.00105737
0.00157598
0.00208256
0.00257362
0.00304595
0.00349639
0.00392282
0.00432324
0.00469609
0.00585352
0.00659596
0.00709703
0.00690946
0.00592429
0.00461745
0.00222043
0
0
0.0010537
0.00207793
0.00304538
0.00393319
0.00472377
0.00675198
0.00726337
0.00492701
0
0
0.000532069
0.00106046
0.00158212
0.00209355
0.00259168
0.00307376
0.00353709
0.00397952
0.00439933
0.00479469
0.00606958
0.00695546
0.00769301
0.00764479
0.00668046
0.00524302
0.00252336
0
0
0.00107886
0.00213182
0.00313464
0.00406651
0.00491083
0.00720949
0.00806199
0.0055693
0
0
0.000556691
0.00111002
0.00165717
0.00219493
0.00272039
0.00323098
0.0037243
0.00419843
0.00465093
0.0050809
0.00649953
0.00752644
0.00846683
0.00851502
0.00750683
0.00590288
0.0028384
0
0
0.00115563
0.00228622
0.00336805
0.00438029
0.00530679
0.00790893
0.00901345
0.00624735
0
0
0.00061042
0.0012174
0.00181801
0.00240901
0.0029874
0.00355057
0.00409549
0.00462015
0.00512219
0.00560048
0.00720583
0.008373
0.00947053
0.00955621
0.00841977
0.00659978
0.00316794
0
0
0.00129773
0.00256803
0.00378504
0.00492611
0.0059725
0.00893029
0.0101546
0.00696178
0
0
0.000701569
0.00139915
0.00208918
0.00276804
0.00343205
0.00407834
0.00470322
0.00530479
0.00588081
0.00642908
0.00825645
0.00959433
0.0107573
0.0108055
0.00943798
0.00733212
0.00351507
0
0
0.00120815
0.00239353
0.00353421
0.00461085
0.00560639
0.00853353
0.0100168
0.00710965
0
0
0.000526254
0.00105024
0.00156988
0.0020831
0.0025876
0.00308181
0.00356325
0.00403091
0.00448256
0.00491726
0.00641767
0.00761249
0.00886379
0.00924582
0.00851057
0.00684411
0.00336578
0
0
0.000920134
0.00182653
0.00270593
0.00354612
0.00433609
0.00679997
0.00852792
0.0065556
0
0
0.000405621
0.000809792
0.00121125
0.00160865
0.00200059
0.00238598
0.0027634
0.00313197
0.00349039
0.00383809
0.00507276
0.00609423
0.00730397
0.00784489
0.00752798
0.00624231
0.00315026
0
0
0.000716822
0.00142489
0.00211569
0.00278131
0.00341486
0.00546977
0.0072114
0.00592269
0
0
0.000318922
0.000636912
0.000953154
0.00126675
0.00157682
0.00188261
0.00218324
0.00247809
0.00276603
0.00304677
0.00405823
0.00492262
0.00602799
0.00661921
0.00656849
0.00559224
0.00289233
0
0
0.000568277
0.00113072
0.00168162
0.00221552
0.00272758
0.00443572
0.00607154
0.00526689
0
0
0.000254504
0.000508366
0.000761038
0.0010119
0.00126034
0.00150583
0.0017478
0.00198573
0.00221897
0.0024472
0.00327869
0.00400516
0.00498367
0.0055651
0.00567361
0.00494069
0.00261256
0
0
0.000456127
0.000908199
0.00135223
0.00178437
0.00220112
0.00362009
0.00509725
0.00462605
0
0
0.000205253
0.000410052
0.000614014
0.000816689
0.00101766
0.00121653
0.00141289
0.00160639
0.00179657
0.00198314
0.00266835
0.00327683
0.00412659
0.00466745
0.00486324
0.00431726
0.00232752
0
0
0.000369428
0.000735945
0.00109668
0.00144884
0.00178985
0.0029685
0.0042706
0.00402322
0
0
0.00016681
0.000333289
0.000499159
0.000664092
0.000827784
0.000989944
0.00115027
0.0013085
0.00146431
0.00161747
0.00218333
0.00269187
0.00342083
0.00390748
0.00414386
0.00373916
0.00204954
0
0
0.000301152
0.00060016
0.0008949
0.00118331
0.00146343
0.00244253
0.00357235
0.00347096
0
0
0.000136313
0.00027238
0.000407994
0.000542907
0.000676896
0.000809739
0.000941213
0.00107111
0.00119921
0.00132532
0.00179334
0.00221774
0.00283788
0.00326643
0.00351412
0.003215
0.00178706
0
0
0.000246627
0.000491642
0.00073344
0.000970462
0.0012012
0.00201454
0.00298431
0.00297473
0
0
0.000111819
0.000223451
0.000334738
0.000445494
0.000555549
0.000664735
0.000772879
0.000879826
0.0009854
0.00108946
0.00147687
0.00183069
0.00235523
0.00272714
0.00296838
0.00274761
0.00154528
0
0
0.000202605
0.000403968
0.000602858
0.000798078
0.000988486
0.00166405
0.0024902
0.00253521
0
0
9.19676e-05
0.000183791
0.000275351
0.000366495
0.000457097
0.000547016
0.000636124
0.000724284
0.000811398
0.000897313
0.00121834
0.00151275
0.001955
0.00227449
0.00249902
0.00233595
0.00132697
0
0
0.000166808
0.000332667
0.000496617
0.000657714
0.00081498
0.00137604
0.00207612
0.00214957
0
0
7.57516e-05
0.000151393
0.000226817
0.000301932
0.000376616
0.000450792
0.000524331
0.000597169
0.000669182
0.000740302
0.00100592
0.00125151
0.00162138
0.00189603
0.00209835
0.00197562
0.00113335
0
0
0.000106942
0.000213323
0.00031858
0.000422159
0.000523523
0.000887752
0.00135574
0.00144751
0
0
3.75764e-05
7.51067e-05
0.000112543
0.000149847
0.000186957
0.00022385
0.000260454
0.000296756
0.000332672
0.000368204
0.000501564
0.000626167
0.000817319
0.000965216
0.00108671
0.00104948
0.000610197
0
0
5.33744e-05
0.000106492
0.0001591
0.000210948
0.000261795
0.000445722
0.000688489
0.000756229
0
0
1.88618e-05
3.77008e-05
5.64968e-05
7.52286e-05
9.38709e-05
0.000112408
0.00013081
0.000149066
0.000167139
0.000185026
0.000252333
0.000315362
0.000413074
0.00048932
0.000558253
0.000544331
0.000319199
0
0
2.69639e-05
5.38044e-05
8.03987e-05
0.000106626
0.000132369
0.000225836
0.000351273
0.000391452
0
0
9.63162e-06
1.92524e-05
2.88521e-05
3.84206e-05
4.79456e-05
5.74193e-05
6.68277e-05
7.61647e-05
8.54124e-05
9.45691e-05
0.000129091
0.000161536
0.00021177
0.000251403
0.000288115
0.000282506
0.000166494
0
0
1.3722e-05
2.73831e-05
4.09226e-05
5.42804e-05
6.73997e-05
0.000115084
0.000179654
0.000201717
0
0
4.64167e-06
9.27776e-06
1.39042e-05
1.85148e-05
2.31056e-05
2.76704e-05
3.22053e-05
3.67042e-05
4.1161e-05
4.5572e-05
6.22675e-05
7.79085e-05
0.000102419
0.000121664
0.000140313
0.000137362
8.16461e-05
0
0
5.10956e-06
1.01967e-05
1.52397e-05
2.02172e-05
2.51113e-05
4.28807e-05
6.71301e-05
7.62937e-05
0
0
0
0
0
0
0
0
0
0
0
0
0
0
0
0
0
0
0
0
SCALARS Displacement_Z double 1
LOOKUP_TABLE default
0.10214
0.101994
0.10155
0.100817
0.0997956
0.0984857
0.0968893
0.0950118
0.0927843
0.0901814
0.0868094
0.0765339
0.0685543
0.0570782
0.0482846
0.0368438
0.0290135
0.0208978
0.0183922
0.102433
0.101829
0.100029
0.097061
0.0928544
0.0870999
0.0686936
0.0483172
0.0289996
0.0183571
0.102461
0.102306
0.101844
0.101077
0.100009
0.0986389
0.0969685
0.0950013
0.092732
0.0901021
0.0872727
0.0771082
0.0688215
0.0572167
0.048351
0.0368505
0.0289894
0.0208488
0.0183274
0.102271
0.101645
0.0997811
0.0967098
0.0924583
0.0872887
0.0689154
0.048381
0.028982
0.0183035
0.101895
0.101737
0.101265
0.100481
0.0993899
0.0979961
0.0963106
0.0943497
0.0921342
0.0897102
0.0871692
0.0773854
0.0689815
0.0573272
0.0484128
0.0368703
0.0289779
0.0208172
0.018285
0.10136
0.100731
0.0988632
0.0958148
0.0917329
0.0869571
0.0690128
0.0484389
0.028976
0.0182715
0.100666
0.100509
0.100045
0.0992736
0.098204
0.0968454
0.0952173
0.0933416
0.0912557
0.0889986
0.0866272
0.0773014
0.0690112
0.0573985
0.048467
0.0369029
0.0289772
0.0208034
0.0182634
0.0998033
0.099197
0.0974024
0.0945008
0.0906747
0.0862137
0.0689716
0.0484887
0.0289806
0.0182603
0.0987357
0.0985891
0.09815
0.0974242
0.0964183
0.0951471
0.093628
0.091887
0.0899567
0.0878759
0.0856933
0.0769023
0.0689097
0.0574385
0.0485119
0.0369473
0.0289871
0.0208066
0.0182626
0.096649
0.0961036
0.0944951
0.0919178
0.0885316
0.0846328
0.0687133
0.048532
0.0289962
0.0182713
0.0946467
0.0945192
0.094141
0.0935159
0.0926541
0.0915675
0.0902751
0.088798
0.0871657
0.0854045
0.0835584
0.0758288
0.0684808
0.0574094
0.0485444
0.0370132
0.0290057
0.0208296
0.0182854
0.0927397
0.0922725
0.0908999
0.088707
0.085842
0.0825086
0.068223
0.0485488
0.0290142
0.0183028
0.0909334
0.090825
0.0905022
0.0899697
0.0892361
0.088312
0.0872132
0.085959
0.0845687
0.0830623
0.081468
0.0746504
0.0679313
0.0572909
0.0485424
0.0370602
0.0290231
0.0208668
0.0183254
0.0892274
0.0888297
0.0876603
0.0857923
0.0833421
0.0804579
0.0676154
0.0485251
0.0290319
0.0183521
0.0876202
0.0875277
0.0872522
0.0867975
0.0861708
0.0853809
0.0844406
0.0833633
0.0821648
0.0808598
0.0794675
0.0734214
0.06727
0.0570817
0.0484945
0.0370841
0.0290413
0.0209173
0.0183839
0.0861054
0.0857646
0.0847617
0.0831546
0.081033
0.0785092
0.0669055
0.0484511
0.0290506
0.01842
0.0846782
0.0845986
0.0843613
0.0839693
0.0834283
0.0827454
0.0819303
0.0809934
0.0799469
0.0788021
0.0775738
0.0721695
0.0665157
0.0567837
0.0483927
0.0370821
0.0290609
0.0209808
0.0184613
0.0833303
0.0830348
0.0821639
0.0807629
0.0789016
0.0766675
0.0661107
0.0483203
0.029071
0.0185069
0.0820551
0.0819857
0.0817785
0.0814359
0.0809625
0.0803638
0.0796473
0.0788213
0.0778954
0.0768787
0.0757828
0.070908
0.0656835
0.0563997
0.0482321
0.0370526
0.0290823
0.0210578
0.0185578
0.0808436
0.0805838
0.0798165
0.0785777
0.0769227
0.0749214
0.0652433
0.0481294
0.0290936
0.0186131
0.0796884
0.0796269
0.0794433
0.0791395
0.0787191
0.0781866
0.0775479
0.0768097
0.0759798
0.0750656
0.0740767
0.0696379
0.0647822
0.0559323
0.0480107
0.036995
0.0291062
0.0211487
0.0186737
0.0785799
0.078348
0.0776621
0.0765513
0.0750606
0.0732472
0.0643082
0.0478775
0.0291192
0.0187387
0.0775098
0.0774545
0.0772894
0.0770162
0.0766377
0.0761575
0.0755807
0.0749127
0.0741598
0.0733285
0.0724266
0.0683498
0.0638131
0.0553828
0.0477287
0.03691
0.0291337
0.0212541
0.0188092
0.0764677
0.0762579
0.0756368
0.0746284
0.0732704
0.0716109
0.0633034
0.0475659
0.0291489
0.0188844
0.0754441
0.0753938
0.0752437
0.074995
0.0746503
0.0742125
0.0736858
0.073075
0.0723854
0.0716226
0.0707934
0.0670241
0.0627707
0.0547503
0.0473885
0.0367998
0.029166
0.021375
0.0189651
0.0744275
0.0742358
0.0736679
0.072744
0.0714968
0.0699676
0.0622203
0.0471979
0.0291841
0.0190506
0.0734063
0.0733601
0.0732226
0.0729946
0.0726785
0.0722766
0.0717927
0.0712306
0.0705955
0.0698914
0.0691256
0.0656315
0.0616435
0.0540326
0.0469943
0.0366679
0.0292046
0.0215123
0.0191418
0.0723671
0.0721912
0.0716699
0.0708209
0.0696714
0.0682588
0.0610446
0.0467787
0.0292266
0.0192382
0.0712951
0.0712528
0.0711269
0.070918
0.0706282
0.0702596
0.0698154
0.0692991
0.0687146
0.0680661
0.0673567
0.0641306
0.060415
0.0532264
0.0465521
0.0365201
0.0292517
0.0216673
0.0193404
0.0701735
0.0700135
0.069538
0.0687624
0.067711
0.0664141
0.0597577
0.0463141
0.0292788
0.0194486
0.0689835
0.0689466
0.0688322
0.068644
0.0683814
0.0680483
0.0676454
0.0671777
0.0666468
0.0660571
0.0654128
0.0624642
0.0590645
0.0523304
0.046068
0.036364
0.0293096
0.0218407
0.0195628
0.0639369
0.0638151
0.0634508
0.0628545
0.0620414
0.06103
0.055749
0.0444407
0.0289229
0.0196097
0.0595169
0.0594907
0.059416
0.0592905
0.0591174
0.0588952
0.0586276
0.0583137
0.0579573
0.0575597
0.0571232
0.055097
0.052668
0.0477334
0.0428034
0.0347231
0.0285063
0.0217537
0.0196405
0.0556044
0.0555212
0.0552736
0.0548669
0.0543096
0.0536126
0.0498459
0.0412244
0.0280747
0.0196535
0.0521201
0.0521025
0.0520505
0.0519638
0.0518433
0.0516891
0.0515025
0.0512835
0.0510341
0.0507556
0.0504492
0.0490008
0.0472315
0.0435446
0.0396672
0.0329941
0.0276159
0.0215731
0.0196465
0.0489939
0.0489353
0.0487604
0.0484721
0.0480755
0.0475757
0.0448206
0.0381759
0.027144
0.0196194
0.0461737
0.046161
0.0461237
0.0460613
0.0459747
0.0458635
0.0457288
0.0455704
0.0453895
0.0451869
0.044963
0.0439009
0.0425852
0.0397826
0.0367238
0.0312427
0.0266497
0.0212984
0.0195693
0.0436135
0.0435707
0.0434429
0.0432317
0.0429403
0.042572
0.0405119
0.0353381
0.0261462
0.0194985
0.0412793
0.04127
0.0412423
0.0411962
0.041132
0.0410496
0.0409496
0.040832
0.0406974
0.0405463
0.0403791
0.0395822
0.0385846
0.0364239
0.033999
0.0295122
0.0256254
0.0209328
0.0194029
0.0391405
0.0391084
0.0390127
0.0388543
0.0386352
0.0383577
0.0367883
0.0327228
0.0250994
0.0192868
0.0371733
0.0371662
0.0371453
0.0371104
0.0370618
0.0369994
0.0369236
0.0368344
0.0367322
0.0366173
0.0364899
0.035881
0.0351125
0.033427
0.0314947
0.0278284
0.0245608
0.0204825
0.0191454
0.0353561
0.0353317
0.0352586
0.0351375
0.0349698
0.0347569
0.0335434
0.0303236
0.0240204
0.0189845
0.0336721
0.0336667
0.0336506
0.0336238
0.0335863
0.0335383
0.0334799
0.0334111
0.0333323
0.0332435
0.033145
0.0326729
0.0320733
0.0307457
0.0291987
0.0262052
0.0234713
0.0199551
0.0187988
0.0321055
0.0320866
0.0320299
0.0319361
0.0318058
0.0316402
0.0306906
0.0281242
0.0229229
0.0185948
0.0306438
0.0306396
0.0306271
0.0306061
0.030577
0.0305395
0.0304939
0.0304402
0.0303786
0.0303091
0.030232
0.0298617
0.0293893
0.0283356
0.0270921
0.0246481
0.0223688
0.0193588
0.0183674
0.0292753
0.0292605
0.029216
0.0291424
0.0290401
0.0289099
0.0281598
0.0261036
0.0218171
0.0181233
0.0279905
0.0279871
0.0279772
0.0279608
0.0279378
0.0279082
0.0278723
0.0278299
0.0277813
0.0277265
0.0276656
0.0273725
0.0269973
0.0261559
0.0251531
0.0231572
0.021262
0.0187015
0.0178575
0.0267803
0.0267686
0.0267334
0.0266751
0.0265941
0.0264908
0.025894
0.02424
0.0207102
0.0175768
0.0256376
0.025635
0.0256271
0.025614
0.0255958
0.0255723
0.0255438
0.0255101
0.0254714
0.0254278
0.0253792
0.0251458
0.0248458
0.0241706
0.0233604
0.0217296
0.0201566
0.0179912
0.0172765
0.0245553
0.0245459
0.0245179
0.0244714
0.0244069
0.0243245
0.0238471
0.0225121
0.0196067
0.0169631
0.0235276
0.0235254
0.0235192
0.0235087
0.0234941
0.0234753
0.0234525
0.0234256
0.0233948
0.02336
0.0233214
0.0231336
0.0228938
0.0223486
0.0216929
0.0203608
0.0190559
0.0172349
0.0166322
0.0201403
0.0201347
0.020118
0.0200901
0.0200514
0.0200018
0.0197139
0.0188978
0.0170736
0.0153292
0.0172182
0.0172172
0.0172144
0.0172096
0.0172031
0.0171945
0.0171843
0.0171721
0.0171582
0.0171424
0.017125
0.0170394
0.0169301
0.0166791
0.0163734
0.0157409
0.0150963
0.0141633
0.0138531
0.0146135
0.014611
0.0146033
0.0145906
0.0145729
0.0145502
0.0144182
0.0140386
0.0131656
0.0122947
0.0122328
0.0122323
0.0122311
0.0122289
0.0122259
0.0122221
0.0122174
0.0122119
0.0122055
0.0121984
0.0121905
0.0121515
0.0121015
0.0119868
0.011847
0.0115504
0.011244
0.0107908
0.0106401
0.0100058
0.0100046
0.0100012
0.0099956
0.00998773
0.00997763
0.00991892
0.00974834
0.00935009
0.00894324
0.00788667
0.00788647
0.00788593
0.00788501
0.00788375
0.00788211
0.00788013
0.00787778
0.0078751
0.00787209
0.00786874
0.00785207
0.00783072
0.00778219
0.00772252
0.00759476
0.00746214
0.007262
0.00719671
0.00584157
0.00584114
0.00583983
0.00583766
0.00583463
0.00583073
0.00580823
0.00574262
0.00558896
0.00542908
0.00385123
0.00385116
0.00385099
0.0038507
0.00385032
0.0038498
0.00384919
0.00384846
0.00384763
0.00384671
0.00384569
0.0038404
0.00383375
0.00381872
0.00380033
0.00376036
0.0037193
0.00365428
0.00363549
0.00190344
0.00190336
0.00190312
0.00190271
0.00190214
0.00190139
0.00189725
0.00188459
0.00185807
0.00182859
-0
-0
-0
-0
-0
-0
-0
-0
-0
-0
-0
-0
-0
-0
-0
-0
-0
-0
-0
SCALARS Stress_R double 1
LOOKUP_TABLE default
1164.23
1153.2
1144.91
1120.69
1100.19
1061.18
1034.55
999.861
923.465
795.316
467.328
126.844
3.68663
-25.7282
-45.9989
-45.5614
-47.2228
-46.2922
-47.5198
888.202
872.598
829.694
749.787
606.579
396.842
45.9944
-28.5417
-38.314
-40.5832
656.524
648.378
643.559
625.535
608.651
575.906
543.944
501.08
409.229
400.005
363.71
173.141
60.2898
14.4441
-11.0252
-21.1259
-29.4675
-31.9697
-33.813
419.255
409.331
383.673
335.289
270.68
282.967
84.8102
4.77416
-21.4305
-27.3679
206.634
204.124
202.627
197.362
189.226
181.468
168.523
163.838
154.192
161.514
183.952
115.89
97.827
47.1158
19.8903
2.42325
-13.4252
-17.5021
-20.8034
-7.09661
-5.60594
-2.0096
5.01464
31.0498
91.5781
104.778
35.2394
-5.38774
-14.2704
-224.113
-218.255
-215.928
-204.519
-196.093
-175.942
-159.117
-127.6
-100.359
-61.8902
0.374824
45.9046
115.512
77.1506
50.8231
25.1091
2.42992
-3.22397
-7.85779
-436.33
-421.888
-384.451
-318.481
-225.104
-87.3962
125.955
66.3592
10.8609
-1.20922
-313.517
-305.241
-302.967
-288.377
-276.767
-251.701
-228.93
-193.244
-160.663
-122.96
-53.6365
26.5974
102.921
68.6514
49.7989
27.669
11.6668
6.4234
3.22625
39.9316
41.78
42.4069
43.9436
46.8021
61.2137
54.7149
18.4586
4.44874
1.64462
30.6701
34.603
32.6308
35.1594
33.5109
36.3352
35.656
38.664
38.6904
41.264
53.2205
36.0598
50.4861
21.8304
17.6298
8.57162
4.57769
3.75827
2.46945
21.0633
23.1685
24.7988
27.3421
31.4025
42.5857
44.7116
17.6134
5.21746
3.43164
13.5005
17.0379
15.5893
18.0832
17.2417
19.9931
20.351
22.9969
24.1356
26.0062
34.903
25.7012
40.2127
17.8352
17.1707
8.81948
5.68422
5.10561
4.25739
7.26687
9.30249
11.1408
14.0352
17.6753
26.8167
34.8417
16.6829
6.33662
5.12134
0.824598
3.86272
2.77591
5.02994
4.6582
7.17918
7.67124
10.1433
11.3153
13.1643
20.2054
15.7962
30.125
13.2556
15.9663
8.81605
6.92635
6.4933
5.95503
-3.57135
-1.80009
-0.00629757
2.69371
6.04021
13.5928
24.945
15.1268
7.6196
6.78987
-9.39631
-6.91915
-7.71851
-5.78877
-5.90679
-3.72421
-3.10116
-0.90465
0.194585
2.07725
7.56912
6.55387
20.241
8.4893
14.1803
8.61303
8.28497
7.89991
7.63088
-12.9844
-11.4828
-9.84753
-7.37439
-4.26894
2.01862
15.3141
13.1004
8.9988
8.45245
-18.5773
-16.5813
-17.167
-15.5327
-15.5078
-13.5973
-12.9358
-10.9331
-9.86368
-8.01391
-3.68055
-2.24134
10.6641
3.71732
12.0128
8.31553
9.72223
9.33106
9.2998
-21.903
-20.6407
-19.1408
-16.8453
-13.9061
-8.58114
6.0172
10.8064
10.4445
10.1148
-27.6305