# vtk DataFile Version 2.0
./vtk
ASCII

DATASET UNSTRUCTURED_GRID
POINTS 3209 double
0 0 0.0
0.344 0 0.0
0.6881 0 0.0
0.9374 0 0.0
1.1867 0 0.0
1.3675 0 0.0
1.5482 0 0.0
1.6792 0 0.0
1.8101 0 0.0
1.9051 0 0.0
2 0 0.0
2.1484 0 0.0
2.2967 0 0.0
2.4627 0 0.0
2.6287 0 0.0
2.8143 0 0.0
3 0 0.0
3.1808 0 0.0
3.3616 0 0.0
3.5279 0 0.0
3.6942 0 0.0
3.8471 0 0.0
4 0 0.0
4.1484 0 0.0
4.2967 0 0.0
4.4548 0 0.0
4.613 0 0.0
4.7816 0 0.0
4.9501 0 0.0
5.1298 0 0.0
5.3095 0 0.0
5.501 0 0.0
5.6925 0 0.0
5.8967 0 0.0
6.1008 0 0.0
6.3185 0 0.0
6.5361 0 0.0
6.768 0 0.0
7 0 0.0
7.2473 0 0.0
7.4945 0 0.0
7.7581 0 0.0
8.0216 0 0.0
8.3026 0 0.0
8.5835 0 0.0
8.883 0 0.0
9.1825 0 0.0
9.5017 0 0.0
9.8209 0 0.0
10.1611 0 0.0
10.5014 0 0.0
10.8641 0 0.0
11.2268 0 0.0
11.6134 0 0.0
12 0 0.0
0 0.2308 0.0
0.6881 0.2308 0.0
1.1867 0.2308 0.0
1.5482 0.2308 0.0
1.8101 0.2308 0.0
2 0.2308 0.0
2.2967 0.2308 0.0
2.6287 0.2308 0.0
3 0.2308 0.0
3.3616 0.2308 0.0
3.6942 0.2308 0.0
4 0.2308 0.0
4.2967 0.2308 0.0
4.613 0.2308 0.0
4.9501 0.2308 0.0
5.3095 0.2308 0.0
5.6925 0.2308 0.0
6.1008 0.2308 0.0
6.5361 0.2308 0.0
7 0.2308 0.0
7.4945 0.2308 0.0
8.0216 0.2308 0.0
8.5835 0.2308 0.0
9.1825 0.2308 0.0
9.8209 0.2308 0.0
10.5014 0.2308 0.0
11.2268 0.2308 0.0
12 0.2308 0.0
0 0.4615 0.0
0.344 0.4615 0.0
0.6881 0.4615 0.0
0.9374 0.4615 0.0
1.1867 0.4615 0.0
1.3675 0.4615 0.0
1.5482 0.4615 0.0
1.6792 0.4615 0.0
1.8101 0.4615 0.0
1.9051 0.4615 0.0
2 0.4615 0.0
2.1484 0.4615 0.0
2.2967 0.4615 0.0
2.4627 0.4615 0.0
2.6287 0.4615 0.0
2.8143 0.4615 0.0
3 0.4615 0.0
3.1808 0.4615 0.0
3.3616 0.4615 0.0
3.5279 0.4615 0.0
3.6942 0.4615 0.0
3.8471 0.4615 0.0
4 0.4615 0.0
4.1484 0.4615 0.0
4.2967 0.4615 0.0
4.4548 0.4615 0.0
4.613 0.4615 0.0
4.7816 0.4615 0.0
4.9501 0.4615 0.0
5.1298 0.4615 0.0
5.3095 0.4615 0.0
5.501 0.4615 0.0
5.6925 0.4615 0.0
5.8967 0.4615 0.0
6.1008 0.4615 0.0
6.3185 0.4615 0.0
6.5361 0.4615 0.0
6.768 0.4615 0.0
7 0.4615 0.0
7.2473 0.4615 0.0
7.4945 0.4615 0.0
7.7581 0.4615 0.0
8.0216 0.4615 0.0
8.3026 0.4615 0.0
8.5835 0.4615 0.0
8.883 0.4615 0.0
9.1825 0.4615 0.0
9.5017 0.4615 0.0
9.8209 0.4615 0.0
10.1611 0.4615 0.0
10.5014 0.4615 0.0
10.8641 0.4615 0.0
11.2268 0.4615 0.0
11.6134 0.4615 0.0
12 0.4615 0.0
0 0.6923 0.0
0.6881 0.6923 0.0
1.1867 0.6923 0.0
1.5482 0.6923 0.0
1.8101 0.6923 0.0
2 0.6923 0.0
2.2967 0.6923 0.0
2.6287 0.6923 0.0
3 0.6923 0.0
3.3616 0.6923 0.0
3.6942 0.6923 0.0
4 0.6923 0.0
4.2967 0.6923 0.0
4.613 0.6923 0.0
4.9501 0.6923 0.0
5.3095 0.6923 0.0
5.6925 0.6923 0.0
6.1008 0.6923 0.0
6.5361 0.6923 0.0
7 0.6923 0.0
7.4945 0.6923 0.0
8.0216 0.6923 0.0
8.5835 0.6923 0.0
9.1825 0.6923 0.0
9.8209 0.6923 0.0
10.5014 0.6923 0.0
11.2268 0.6923 0.0
12 0.6923 0.0
0 0.9231 0.0
0.344 0.9231 0.0
0.6881 0.9231 0.0
0.9374 0.9231 0.0
1.1867 0.9231 0.0
1.3675 0.9231 0.0
1.5482 0.9231 0.0
1.6792 0.9231 0.0
1.8101 0.9231 0.0
1.9051 0.9231 0.0
2 0.9231 0.0
2.1484 0.9231 0.0
2.2967 0.9231 0.0
2.4627 0.9231 0.0
2.6287 0.9231 0.0
2.8143 0.9231 0.0
3 0.9231 0.0
3.1808 0.9231 0.0
3.3616 0.9231 0.0
3.5279 0.9231 0.0
3.6942 0.9231 0.0
3.8471 0.9231 0.0
4 0.9231 0.0
4.1484 0.9231 0.0
4.2967 0.9231 0.0
4.4548 0.9231 0.0
4.613 0.9231 0.0
4.7816 0.9231 0.0
4.9501 0.9231 0.0
5.1298 0.9231 0.0
5.3095 0.9231 0.0
5.501 0.9231 0.0
5.6925 0.9231 0.0
5.8967 0.9231 0.0
6.1008 0.9231 0.0
6.3185 0.9231 0.0
6.5361 0.9231 0.0
6.768 0.9231 0.0
7 0.9231 0.0
7.2473 0.9231 0.0
7.4945 0.9231 0.0
7.7581 0.9231 0.0
8.0216 0.9231 0.0
8.3026 0.9231 0.0
8.5835 0.9231 0.0
8.883 0.9231 0.0
9.1825 0.9231 0.0
9.5017 0.9231 0.0
9.8209 0.9231 0.0
10.1611 0.9231 0.0
10.5014 0.9231 0.0
10.8641 0.9231 0.0
11.2268 0.9231 0.0
11.6134 0.9231 0.0
12 0.9231 0.0
0 1.1538 0.0
0.6881 1.1538 0.0
1.1867 1.1538 0.0
1.5482 1.1538 0.0
1.8101 1.1538 0.0
2 1.1538 0.0
2.2967 1.1538 0.0
2.6287 1.1538 0.0
3 1.1538 0.0
3.3616 1.1538 0.0
3.6942 1.1538 0.0
4 1.1538 0.0
4.2967 1.1538 0.0
4.613 1.1538 0.0
4.9501 1.1538 0.0
5.3095 1.1538 0.0
5.6925 1.1538 0.0
6.1008 1.1538 0.0
6.5361 1.1538 0.0
7 1.1538 0.0
7.4945 1.1538 0.0
8.0216 1.1538 0.0
8.5835 1.1538 0.0
9.1825 1.1538 0.0
9.8209 1.1538 0.0
10.5014 1.1538 0.0
11.2268 1.1538 0.0
12 1.1538 0.0
0 1.3846 0.0
0.344 1.3846 0.0
0.6881 1.3846 0.0
0.9374 1.3846 0.0
1.1867 1.3846 0.0
1.3675 1.3846 0.0
1.5482 1.3846 0.0
1.6792 1.3846 0.0
1.8101 1.3846 0.0
1.9051 1.3846 0.0
2 1.3846 0.0
2.1484 1.3846 0.0
2.2967 1.3846 0.0
2.4627 1.3846 0.0
2.6287 1.3846 0.0
2.8143 1.3846 0.0
3 1.3846 0.0
3.1808 1.3846 0.0
3.3616 1.3846 0.0
3.5279 1.3846 0.0
3.6942 1.3846 0.0
3.8471 1.3846 0.0
4 1.3846 0.0
4.1484 1.3846 0.0
4.2967 1.3846 0.0
4.4548 1.3846 0.0
4.613 1.3846 0.0
4.7816 1.3846 0.0
4.9501 1.3846 0.0
5.1298 1.3846 0.0
5.3095 1.3846 0.0
5.501 1.3846 0.0
5.6925 1.3846 0.0
5.8967 1.3846 0.0
6.1008 1.3846 0.0
6.3185 1.3846 0.0
6.5361 1.3846 0.0
6.768 1.3846 0.0
7 1.3846 0.0
7.2473 1.3846 0.0
7.4945 1.3846 0.0
7.7581 1.3846 0.0
8.0216 1.3846 0.0
8.3026 1.3846 0.0
8.5835 1.3846 0.0
8.883 1.3846 0.0
9.1825 1.3846 0.0
9.5017 1.3846 0.0
9.8209 1.3846 0.0
10.1611 1.3846 0.0
10.5014 1.3846 0.0
10.8641 1.3846 0.0
11.2268 1.3846 0.0
11.6134 1.3846 0.0
12 1.3846 0.0
0 1.6154 0.0
0.6881 1.6154 0.0
1.1867 1.6154 0.0
1.5482 1.6154 0.0
1.8101 1.6154 0.0
2 1.6154 0.0
2.2967 1.6154 0.0
2.6287 1.6154 0.0
3 1.6154 0.0
3.3616 1.6154 0.0
3.6942 1.6154 0.0
4 1.6154 0.0
4.2967 1.6154 0.0
4.613 1.6154 0.0
4.9501 1.6154 0.0
5.3095 1.6154 0.0
5.6925 1.6154 0.0
6.1008 1.6154 0.0
6.5361 1.6154 0.0
7 1.6154 0.0
7.4945 1.6154 0.0
8.0216 1.6154 0.0
8.5835 1.6154 0.0
9.1825 1.6154 0.0
9.8209 1.6154 0.0
10.5014 1.6154 0.0
11.2268 1.6154 0.0
12 1.6154 0.0
0 1.8462 0.0
0.344 1.8462 0.0
0.6881 1.8462 0.0
0.9374 1.8462 0.0
1.1867 1.8462 0.0
1.3675 1.8462 0.0
1.5482 1.8462 0.0
1.6792 1.8462 0.0
1.8101 1.8462 0.0
1.9051 1.8462 0.0
2 1.8462 0.0
2.1484 1.8462 0.0
2.2967 1.8462 0.0
2.4627 1.8462 0.0
2.6287 1.8462 0.0
2.8143 1.8462 0.0
3 1.8462 0.0
3.1808 1.8462 0.0
3.3616 1.8462 0.0
3.5279 1.8462 0.0
3.6942 1.8462 0.0
3.8471 1.8462 0.0
4 1.8462 0.0
4.1484 1.8462 0.0
4.2967 1.8462 0.0
4.4548 1.8462 0.0
4.613 1.8462 0.0
4.7816 1.8462 0.0
4.9501 1.8462 0.0
5.1298 1.8462 0.0
5.3095 1.8462 0.0
5.501 1.8462 0.0
5.6925 1.8462 0.0
5.8967 1.8462 0.0
6.1008 1.8462 0.0
6.3185 1.8462 0.0
6.5361 1.8462 0.0
6.768 1.8462 0.0
7 1.8462 0.0
7.2473 1.8462 0.0
7.4945 1.8462 0.0
7.7581 1.8462 0.0
8.0216 1.8462 0.0
8.3026 1.8462 0.0
8.5835 1.8462 0.0
8.883 1.8462 0.0
9.1825 1.8462 0.0
9.5017 1.8462 0.0
9.8209 1.8462 0.0
10.1611 1.8462 0.0
10.5014 1.8462 0.0
10.8641 1.8462 0.0
11.2268 1.8462 0.0
11.6134 1.8462 0.0
12 1.8462 0.0
0 2.0769 0.0
0.6881 2.0769 0.0
1.1867 2.0769 0.0
1.5482 2.0769 0.0
1.8101 2.0769 0.0
2 2.0769 0.0
2.2967 2.0769 0.0
2.6287 2.0769 0.0
3 2.0769 0.0
3.3616 2.0769 0.0
3.6942 2.0769 0.0
4 2.0769 0.0
4.2967 2.0769 0.0
4.613 2.0769 0.0
4.9501 2.0769 0.0
5.3095 2.0769 0.0
5.6925 2.0769 0.0
6.1008 2.0769 0.0
6.5361 2.0769 0.0
7 2.0769 0.0
7.4945 2.0769 0.0
8.0216 2.0769 0.0
8.5835 2.0769 0.0
9.1825 2.0769 0.0
9.8209 2.0769 0.0
10.5014 2.0769 0.0
11.2268 2.0769 0.0
12 2.0769 0.0
0 2.3077 0.0
0.344 2.3077 0.0
0.6881 2.3077 0.0
0.9374 2.3077 0.0
1.1867 2.3077 0.0
1.3675 2.3077 0.0
1.5482 2.3077 0.0
1.6792 2.3077 0.0
1.8101 2.3077 0.0
1.9051 2.3077 0.0
2 2.3077 0.0
2.1484 2.3077 0.0
2.2967 2.3077 0.0
2.4627 2.3077 0.0
2.6287 2.3077 0.0
2.8143 2.3077 0.0
3 2.3077 0.0
3.1808 2.3077 0.0
3.3616 2.3077 0.0
3.5279 2.3077 0.0
3.6942 2.3077 0.0
3.8471 2.3077 0.0
4 2.3077 0.0
4.1484 2.3077 0.0
4.2967 2.3077 0.0
4.4548 2.3077 0.0
4.613 2.3077 0.0
4.7816 2.3077 0.0
4.9501 2.3077 0.0
5.1298 2.3077 0.0
5.3095 2.3077 0.0
5.501 2.3077 0.0
5.6925 2.3077 0.0
5.8967 2.3077 0.0
6.1008 2.3077 0.0
6.3185 2.3077 0.0
6.5361 2.3077 0.0
6.768 2.3077 0.0
7 2.3077 0.0
7.2473 2.3077 0.0
7.4945 2.3077 0.0
7.7581 2.3077 0.0
8.0216 2.3077 0.0
8.3026 2.3077 0.0
8.5835 2.3077 0.0
8.883 2.3077 0.0
9.1825 2.3077 0.0
9.5017 2.3077 0.0
9.8209 2.3077 0.0
10.1611 2.3077 0.0
10.5014 2.3077 0.0
10.8641 2.3077 0.0
11.2268 2.3077 0.0
11.6134 2.3077 0.0
12 2.3077 0.0
0 2.5385 0.0
0.6881 2.5385 0.0
1.1867 2.5385 0.0
1.5482 2.5385 0.0
1.8101 2.5385 0.0
2 2.5385 0.0
2.2967 2.5385 0.0
2.6287 2.5385 0.0
3 2.5385 0.0
3.3616 2.5385 0.0
3.6942 2.5385 0.0
4 2.5385 0.0
4.2967 2.5385 0.0
4.613 2.5385 0.0
4.9501 2.5385 0.0
5.3095 2.5385 0.0
5.6925 2.5385 0.0
6.1008 2.5385 0.0
6.5361 2.5385 0.0
7 2.5385 0.0
7.4945 2.5385 0.0
8.0216 2.5385 0.0
8.5835 2.5385 0.0
9.1825 2.5385 0.0
9.8209 2.5385 0.0
10.5014 2.5385 0.0
11.2268 2.5385 0.0
12 2.5385 0.0
0 2.7692 0.0
0.344 2.7692 0.0
0.6881 2.7692 0.0
0.9374 2.7692 0.0
1.1867 2.7692 0.0
1.3675 2.7692 0.0
1.5482 2.7692 0.0
1.6792 2.7692 0.0
1.8101 2.7692 0.0
1.9051 2.7692 0.0
2 2.7692 0.0
2.1484 2.7692 0.0
2.2967 2.7692 0.0
2.4627 2.7692 0.0
2.6287 2.7692 0.0
2.8143 2.7692 0.0
3 2.7692 0.0
3.1808 2.7692 0.0
3.3616 2.7692 0.0
3.5279 2.7692 0.0
3.6942 2.7692 0.0
3.8471 2.7692 0.0
4 2.7692 0.0
4.1484 2.7692 0.0
4.2967 2.7692 0.0
4.4548 2.7692 0.0
4.613 2.7692 0.0
4.7816 2.7692 0.0
4.9501 2.7692 0.0
5.1298 2.7692 0.0
5.3095 2.7692 0.0
5.501 2.7692 0.0
5.6925 2.7692 0.0
5.8967 2.7692 0.0
6.1008 2.7692 0.0
6.3185 2.7692 0.0
6.5361 2.7692 0.0
6.768 2.7692 0.0
7 2.7692 0.0
7.2473 2.7692 0.0
7.4945 2.7692 0.0
7.7581 2.7692 0.0
8.0216 2.7692 0.0
8.3026 2.7692 0.0
8.5835 2.7692 0.0
8.883 2.7692 0.0
9.1825 2.7692 0.0
9.5017 2.7692 0.0
9.8209 2.7692 0.0
10.1611 2.7692 0.0
10.5014 2.7692 0.0
10.8641 2.7692 0.0
11.2268 2.7692 0.0
11.6134 2.7692 0.0
12 2.7692 0.0
0 3 0.0
0.6881 3 0.0
1.1867 3 0.0
1.5482 3 0.0
1.8101 3 0.0
2 3 0.0
2.2967 3 0.0
2.6287 3 0.0
3 3 0.0
3.3616 3 0.0
3.6942 3 0.0
4 3 0.0
4.2967 3 0.0
4.613 3 0.0
4.9501 3 0.0
5.3095 3 0.0
5.6925 3 0.0
6.1008 3 0.0
6.5361 3 0.0
7 3 0.0
7.4945 3 0.0
8.0216 3 0.0
8.5835 3 0.0
9.1825 3 0.0
9.8209 3 0.0
10.5014 3 0.0
11.2268 3 0.0
12 3 0.0
0 3.2308 0.0
0.344 3.2308 0.0
0.6881 3.2308 0.0
0.9374 3.2308 0.0
1.1867 3.2308 0.0
1.3675 3.2308 0.0
1.5482 3.2308 0.0
1.6792 3.2308 0.0
1.8101 3.2308 0.0
1.9051 3.2308 0.0
2 3.2308 0.0
2.1484 3.2308 0.0
2.2967 3.2308 0.0
2.4627 3.2308 0.0
2.6287 3.2308 0.0
[...]
POINT_DATA 3209
VECTORS  Displacement double
4.86765e-07 0 0
-0.000564744 0 0
-0.00112527 0 0
-0.00152662 0 0
-0.00192211 0 0
-0.00220449 0 0
-0.00248233 0 0
-0.00268072 0 0
-0.0028762 0 0
-0.00301623 0 0
-0.00315449 0 0
-0.00336727 0 0
-0.00357552 0 0
-0.00380312 0 0
-0.0040246 0 0
-0.00426458 0 0
-0.00449625 0 0
-0.00471332 0 0
-0.00492171 0 0
-0.00510545 0 0
-0.00528142 0 0
-0.00543616 0 0
-0.00558403 0 0
-0.00572088 0 0
-0.00585099 0 0
-0.00598227 0 0
-0.00610593 0 0
-0.00622914 0 0
-0.0063434 0 0
-0.00645544 0 0
-0.00655735 0 0
-0.00665482 0 0
-0.00674087 0 0
-0.00682012 0 0
-0.00688658 0 0
-0.00694362 0 0
-0.00698658 0 0
-0.00701724 0 0
-0.0070327 0 0
-0.00703291 0 0
-0.00701694 0 0
-0.00698278 0 0
-0.00693182 0 0
-0.00685991 0 0
-0.00677104 0 0
-0.0066589 0 0
-0.00653033 0 0
-0.00637699 0 0
-0.00620883 0 0
-0.00601568 0 0
-0.00581084 0 0
-0.00558297 0 0
-0.00534912 0 0
-0.00509792 0 0
-0.00485043 0 0
4.90275e-07 0.00181303 0
-0.0011258 0.00180162 0
-0.00192299 0.00177935 0
-0.00248344 0.00175614 0
-0.00287745 0.00173578 0
-0.00315583 0.00171923 0
-0.00357698 0.0016905 0
-0.00402616 0.00165446 0
-0.00449788 0.00160966 0
-0.00492336 0.00156195 0
-0.00528304 0.00151494 0
-0.0055856 0.00146942 0
-0.00585246 0.00142348 0
-0.00610727 0.0013729 0
-0.00634457 0.00131756 0
-0.00655831 0.0012574 0
-0.00674156 0.00119252 0
-0.00688697 0.00112309 0
-0.00698663 0.00104951 0
-0.00703237 0.000972379 0
-0.0070162 0.000892525 0
-0.00693068 0.00081107 0
-0.00676951 0.000729487 0
-0.00652846 0.000649722 0
-0.00620666 0.000574386 0
-0.00580841 0.000507025 0
-0.0053465 0.000452693 0
-0.00484765 0.000419043 0
4.90297e-07 0.00362864 0
-0.000565815 0.00362289 0
-0.00112738 0.00360578 0
-0.00152945 0.00358635 0
-0.00192563 0.00356116 0
-0.00220847 0.00353935 0
-0.00248675 0.00351465 0
-0.00268544 0.00349497 0
-0.00288119 0.00347386 0
-0.00302141 0.00345764 0
-0.00315984 0.0034407 0
-0.00337288 0.00341278 0
-0.00358136 0.00338316 0
-0.00380918 0.00334805 0
-0.00403084 0.00331096 0
-0.00427099 0.00326723 0
-0.00450277 0.00322122 0
-0.00471989 0.00317438 0
-0.00492829 0.00312565 0
-0.005112 0.00307926 0
-0.00528789 0.00303148 0
-0.00544252 0.00298641 0
-0.00559026 0.00294033 0
-0.00572694 0.00289471 0
-0.00585685 0.00284832 0
-0.00598789 0.00279806 0
-0.00611127 0.00274703 0
-0.00623415 0.00269192 0
-0.00634805 0.00263622 0
-0.00645968 0.00257623 0
-0.00656114 0.00251576 0
-0.0066581 0.00245094 0
-0.00674361 0.00238586 0
-0.00682225 0.00231633 0
-0.00688809 0.00224687 0
-0.00694444 0.00217301 0
-0.0069867 0.00209958 0
-0.0070166 0.00202198 0
-0.0070313 0.00194521 0
-0.0070307 0.00186457 0
-0.00701393 0.0017854 0
-0.00697896 0.00170282 0
-0.0069272 0.0016224 0
-0.00685449 0.00153927 0
-0.00676487 0.00145915 0
-0.00665199 0.00137733 0
-0.00652275 0.00129954 0
-0.00636876 0.00122146 0
-0.00620003 0.00114878 0
-0.00600635 0.00107775 0
-0.00580104 0.00101393 0
-0.00557273 0.000954591 0
-0.00533851 0.000905103 0
-0.00508696 0.000864306 0
-0.00483917 0.000837468 0
4.97012e-07 0.00545092 0
-0.00113002 0.00541653 0
-0.00193002 0.00534938 0
-0.00249226 0.00527939 0
-0.00288742 0.005218 0
-0.00316653 0.00516811 0
-0.00358865 0.00508152 0
-0.00403863 0.00497287 0
-0.00451088 0.00483785 0
-0.00493648 0.00469407 0
-0.00529593 0.00455242 0
-0.005598 0.0044153 0
-0.00586412 0.00427692 0
-0.00611789 0.00412459 0
-0.0063538 0.00395797 0
-0.0065658 0.00377686 0
-0.00674694 0.00358158 0
-0.00688987 0.00337269 0
-0.00698673 0.00315134 0
-0.00702941 0.0029194 0
-0.00701003 0.00267932 0
-0.00692127 0.00243449 0
-0.00675698 0.00218931 0
-0.00651309 0.00194959 0
-0.00618884 0.00172311 0
-0.00578858 0.00152045 0
-0.005325 0.00135666 0
-0.00482458 0.00125428 0
5.00383e-07 0.00728172 0
-0.000569023 0.00727013 0
-0.00113371 0.00723563 0
-0.00153794 0.00719647 0
-0.00193616 0.00714569 0
-0.00222038 0.00710172 0
-0.00249996 0.00705194 0
-0.00269953 0.00701227 0
-0.00289611 0.00696971 0
-0.00303689 0.00693702 0
-0.00317585 0.00690289 0
-0.00338965 0.00684661 0
-0.00359881 0.00678693 0
-0.00382729 0.00671618 0
-0.00404949 0.00664144 0
-0.0042901 0.00655333 0
-0.00452219 0.00646065 0
-0.00473947 0.0063663 0
-0.00494788 0.00626815 0
-0.00513148 0.00617474 0
-0.00530712 0.00607853 0
-0.00546142 0.00598778 0
-0.00560872 0.00589501 0
-0.00574489 0.00580319 0
-0.00587419 0.00570981 0
-0.00600449 0.00560867 0
-0.00612702 0.00550599 0
-0.0062489 0.00539513 0
-0.0063617 0.00528308 0
-0.00647205 0.00516243 0
-0.00657214 0.00504084 0
-0.00666754 0.00491051 0
-0.0067514 0.00477968 0
-0.00682821 0.00463996 0
-0.00689214 0.00450039 0
-0.00694639 0.004352 0
-0.00698651 0.00420451 0
-0.00701411 0.00404868 0
-0.00702649 0.00389456 0
-0.00702344 0.00373269 0
-0.00700426 0.00357381 0
-0.00696679 0.0034081 0
-0.00691263 0.00324677 0
-0.00683749 0.00308001 0
-0.00674559 0.0029193 0
-0.00663047 0.00275517 0
-0.00649918 0.00259913 0
-0.00634324 0.00244247 0
-0.00617277 0.00229659 0
-0.00597747 0.00215393 0
-0.00577074 0.00202564 0
-0.0055411 0.00190618 0
-0.00530565 0.00180628 0
-0.00505284 0.00172356 0
-0.00480365 0.0016682 0
5.10643e-07 0.00912274 0
-0.00113843 0.00906482 0
-0.00194402 0.00895173 0
-0.00250982 0.00883387 0
-0.00290724 0.00873051 0
-0.0031878 0.00864651 0
-0.00361182 0.00850075 0
-0.00406337 0.00831789 0
-0.00453663 0.0080907 0
-0.00496242 0.00784884 0
-0.00532136 0.00761063 0
-0.00562236 0.00738012 0
-0.00588694 0.00714755 0
-0.00613855 0.00689164 0
-0.00637161 0.00661182 0
-0.00658002 0.00630781 0
-0.00675682 0.00598015 0
-0.0068947 0.00562985 0
-0.00698584 0.00525885 0
-0.00702229 0.00487032 0
-0.00699636 0.00446838 0
-0.006901 0.00405867 0
-0.00673038 0.00364849 0
-0.00648072 0.00324746 0
-0.00615151 0.00286837 0
-0.00574717 0.00252858 0
-0.00528009 0.00225282 0
-0.0047759 0.00207776 0
5.17296e-07 0.0109783 0
-0.000574343 0.0109607 0
-0.00114419 0.0109083 0
-0.001552 0.0108488 0
-0.00195359 0.0107716 0
-0.00224011 0.0107048 0
-0.00252183 0.0106291 0
-0.00272285 0.0105689 0
-0.00292079 0.0105042 0
-0.00306249 0.0104546 0
-0.00320232 0.0104027 0
-0.00341737 0.0103172 0
-0.00362763 0.0102266 0
-0.00385716 0.0101192 0
-0.00408023 0.0100057 0
-0.00432157 0.00987191 0
-0.00455415 0.00973123 0
-0.00477164 0.00958805 0
-0.00498002 0.00943913 0
-0.00516336 0.00929741 0
-0.00533855 0.00915149 0
-0.00549224 0.00901388 0
-0.00563877 0.00887323 0
-0.00577402 0.00873403 0
-0.00590225 0.00859252 0
-0.00603124 0.00843927 0
-0.0061523 0.00828372 0
-0.00627244 0.00811583 0
-0.00638334 0.00794616 0
-0.00649148 0.00776353 0
-0.00658921 0.00757953 0
-0.00668192 0.00738237 0
-0.00676295 0.00718451 0
-0.0068366 0.00697327 0
-0.00689726 0.00676234 0
-0.00694791 0.00653814 0
-0.00698438 0.0063154 0
-0.00700803 0.00608012 0
-0.00701645 0.00584752 0
-0.00700922 0.0056033 0
-0.00698593 0.00536368 0
-0.0069442 0.00511383 0
-0.00688595 0.00487063 0
-0.00680667 0.00461931 0
-0.00671089 0.00437715 0
-0.00659196 0.00412983 0
-0.0064572 0.00389466 0
-0.00629794 0.00365848 0
-0.00612453 0.00343841 0
-0.00592648 0.00322301 0
-0.00571733 0.003029 0
-0.00548539 0.00284788 0
-0.00524779 0.0026958 0
-0.00499266 0.00256886 0
-0.0047409 0.00248224 0
5.314e-07 0.0128502 0
-0.00115097 0.0127678 0
-0.00196486 0.0126069 0
-0.00253595 0.0124394 0
-0.00293671 0.0122924 0
-0.00321939 0.012173 0
-0.00364619 0.0119659 0
-0.00409999 0.011706 0
-0.00457464 0.0113834 0
-0.00500056 0.01104 0
-0.00535856 0.0107019 0
-0.00565782 0.010375 0
-0.00591993 0.0100453 0
-0.00616809 0.00968264 0
-0.00639666 0.00928636 0
-0.00659945 0.00885611 0
-0.0067695 0.00839273 0
-0.0068995 0.0078977 0
-0.00698177 0.00737387 0
-0.00700857 0.00682576 0
-0.00697253 0.00625919 0
-0.006867 0.00568208 0
-0.00668662 0.0051046 0
-0.0064281 0.00454 0
-0.0060913 0.00400588 0
-0.00568068 0.00352595 0
-0.00520818 0.00313406 0
-0.00469802 0.00288017 0
5.418e-07 0.0147412 0
-0.000581733 0.0147172 0
-0.00115876 0.014646 0
-0.00157152 0.0145652 0
-0.00197778 0.0144604 0
-0.00226747 0.0143697 0
-0.00255214 0.014267 0
-0.00275515 0.0141852 0
-0.00295495 0.0140974 0
-0.00309791 0.0140301 0
-0.00323893 0.0139597 0
-0.00345566 0.0138437 0
-0.00366741 0.0137207 0
-0.00389836 0.013575 0
-0.00412257 0.013421 0
-0.00436485 0.0132396 0
-0.00459799 0.0130489 0
-0.00481569 0.0128548 0
-0.00502391 0.012653 0
-0.0052068 0.0124611 0
-0.00538123 0.0122634 0
-0.00553397 0.0120771 0
-0.0056793 0.0118867 0
-0.00581315 0.0116984 0
-0.00593976 0.0115069 0
-0.00606679 0.0112997 0
-0.00618566 0.0110894 0
-0.00630321 0.0108624 0
-0.00641129 0.0106332 0
-0.00651618 0.0103866 0
-0.00661043 0.0101382 0
-0.0066992 0.0098721 0
-0.00677609 0.00960522 0
-0.00684512 0.00932042 0
-0.006901 0.00903618 0
-0.00694642 0.00873421 0
-0.00697755 0.00843435 0
-0.00699546 0.00811778 0
-0.00699814 0.00780496 0
-0.00698484 0.00747668 0
-0.00695559 0.00715472 0
-0.0069077 0.00681918 0
-0.00684353 0.0064927 0
-0.00675828 0.0061554 0
-0.00665691 0.00583045 0
-0.00653249 0.0054986 0
-0.00639274 0.005183 0
-0.00622872 0.00486591 0
-0.0060511 0.0045702 0
-0.00584912 0.00428038 0
-0.00563651 0.00401877 0
-0.00540127 0.00377372 0
-0.00516057 0.0035668 0
-0.00490211 0.00339232 0
-0.00464666 0.00327055 0
5.59632e-07 0.0166531 0
-0.00116752 0.0165449 0
-0.00199232 0.0163338 0
-0.00257034 0.0161138 0
-0.00297544 0.015921 0
-0.00326087 0.0157643 0
-0.00369122 0.0154926 0
-0.00414784 0.0151519 0
-0.00462407 0.014729 0
-0.0050499 0.0142793 0
-0.00540636 0.0138368 0
-0.005703 0.0134091 0
-0.0059615 0.012978 0
-0.00620473 0.0125042 0
-0.00642691 0.0119869 0
-0.00662177 0.0114257 0
-0.00678232 0.0108219 0
-0.0069013 0.0101776 0
-0.00697121 0.00949648 0
-0.00698459 0.00878467 0
-0.00693452 0.00804972 0
-0.00681492 0.00730185 0
-0.0066211 0.00655401 0
-0.00635041 0.00582291 0
-0.00600322 0.00513056 0
-0.00558408 0.00450651 0
-0.00510423 0.00399288 0
-0.00458603 0.00365194 0
5.73517e-07 0.0185906 0
-0.000591118 0.0185599 0
-0.00117724 0.0184688 0
-0.00159628 0.0183654 0
-0.00200845 0.0182313 0
-0.00230212 0.0181152 0
-0.0025905 0.0179838 0
-0.00279601 0.0178792 0
-0.00299812 0.017767 0
-0.00314265 0.0176808 0
-0.00328513 0.0175908 0
-0.00350395 0.0174425 0
-0.00371751 0.0172853 0
-0.00395016 0.017099 0
-0.0041757 0.0169023 0
-0.00441903 0.0166706 0
-0.00465274 0.0164271 0
-0.00487052 0.0161793 0
-0.00507836 0.0159218 0
-0.00526048 0.0156769 0
-0.00543375 0.0154248 0
-0.00558508 0.0151873 0
-0.00572866 0.0149447 0
-0.00586052 0.0147047 0
-0.00598485 0.0144609 0
-0.00610914 0.014197 0
-0.00622496 0.0139294 0
-0.00633894 0.0136408 0
-0.00644314 0.0133494 0
-0.00654357 0.013036 0
-0.00663305 0.0127205 0
-0.00671645 0.0123828 0
-0.00678769 0.0120442 0
-0.00685045 0.0116831 0
-0.00689986 0.011323 0
-0.00693819 0.0109406 0
-0.00696212 0.0105612 0
-0.0069723 0.0101609 0
-0.00696724 0.00976559 0
-0.00694578 0.00935102 0
-0.00690855 0.00894469 0
-0.0068524 0.00852146 0
-0.00678032 0.00810986 0
-0.00668709 0.00768482 0
-0.00657828 0.00727544 0
-0.00644656 0.00685739 0
-0.00630018 0.00645975 0
-0.00612987 0.00606002 0
-0.0059467 0.00568687 0
-0.00573956 0.00532053 0
-0.00552243 0.00498897 0
-0.00528291 0.00467708 0
-0.00503821 0.00441193 0
-0.00477547 0.00418564 0
-0.00451531 0.00402376 0
5.95674e-07 0.0205555 0
-0.00118789 0.0204197 0
-0.00202609 0.0201549 0
-0.00261255 0.019879 0
-0.0030229 0.0196372 0
-0.00331163 0.0194408 0
-0.00374617 0.0191003 0
-0.00420599 0.0186736 0
-0.00468381 0.0181442 0
-0.00510907 0.0175816 0
-0.00546314 0.0170284 0
-0.00575601 0.0164941 0
-0.0060095 0.0159561 0
-0.006246 0.0153653 0
-0.00645955 0.0147208 0
-0.00664379 0.0140225 0
-0.00679168 0.013272 0
-0.00689607 0.0124722 0
-0.00694964 0.0116281 0
-0.00694537 0.0107472 0
-0.00687691 0.00983901 0
-0.00673892 0.00891605 0
-0.0065276 0.007994 0
-0.00624116 0.00709276 0
-0.00588062 0.00623829 0
-0.00545064 0.0054652 0
-0.0049616 0.00482284 0
-0.0044335 0.00438457 0
6.13836e-07 0.0225502 0
-0.00060239 0.0225124 0
-0.00119943 0.0223998 0
-0.00162599 0.0222721 0
-0.00204519 0.0221065 0
-0.0023436 0.0219632 0
-0.00263637 0.0218011 0
-0.00284482 0.0216719 0
-0.00304966 0.0215334 0
-0.00319602 0.0214271 0
-0.0033402 0.0213161 0
-0.00356141 0.0211331 0
-0.00377703 0.0209393 0
-0.00401156 0.0207096 0
-0.00423853 0.0204672 0
-0.0044829 0.0201816 0
-0.00471705 0.0198816 0
-0.00493466 0.0195766 0
-0.00514175 0.0192596 0
-0.00532265 0.0189583 0
-0.0054942 0.0186483 0
-0.00564352 0.0183563 0
-0.00578468 0.0180581 0
-0.00591381 0.0177634 0
-0.00603504 0.0174641 0
-0.00615564 0.0171403 0
-0.00626738 0.0168121 0
-0.0063766 0.0164583 0
-0.00647566 0.0161013 0
-0.0065702 0.0157176 0
-0.00665343 0.0153315 0
-0.00672979 0.0149186 0
-0.00679366 0.014505 0
-0.00684826 0.0140641 0
-0.00688924 0.0136248 0
-0.00691838 0.0131587 0
-0.00693299 0.0126966 0
-0.00693317 0.0122094 0
-0.00691814 0.0117288 0
-0.00688618 0.0112251 0
-0.00683868 0.0107319 0
-0.00677194 0.0102185 0
-0.00668974 0.0097196 0
-0.00658633 0.00920465 0
-0.00646803 0.00870887 0
-0.00632703 0.00820266 0
-0.00617227 0.0077211 0
-0.00599402 0.00723671 0
-0.00580389 0.00678401 0
-0.00559031 0.00633871 0
-0.00536761 0.00593441 0
-0.00512287 0.00555225 0
-0.00487334 0.00522478 0
-0.00460548 0.00494153 0
-0.0043397 0.00473344 0
6.39977e-07 0.0245792 0
-0.00121181 0.0244137 0
-0.00206567 0.0240907 0
-0.0026619 0.0237545 0
-0.00307828 0.0234599 0
-0.00337074 0.0232207 0
-0.00380995 0.0228061 0
-0.00427314 0.0222867 0
-0.00475224 0.0216428 0
-0.00517614 0.020959 0
-0.00552665 0.0202874 0
-0.00581432 0.0196393 0
-0.00606107 0.0189873 0
-0.00628865 0.018272 0
-0.00649093 0.0174927 0
-0.00666138 0.0166494 0
-0.00679296 0.0157445 0
-0.00687862 0.0147818 0
-0.00691134 0.0137675 0
-0.00688463 0.012711 0
-0.00679287 0.0116238 0
-0.00663172 0.0105208 0
-0.00639844 0.00942018 0
-0.00609235 0.00834478 0
-0.00571532 0.00732391 0
-0.00527216 0.00639629 0
-0.00477223 0.0056172 0
-0.00423264 0.00506944 0
6.62407e-07 0.0266452 0
-0.000615385 0.0265995 0
-0.00122498 0.0264637 0
-0.00166017 0.0263095 0
-0.00208742 0.0261097 0
-0.00239124 0.0259369 0
-0.00268898 0.0257413 0
-0.00290073 0.0255855 0
-0.00310861 0.0254185 0
-0.003257 0.0252903 0
-0.00340306 0.0251565 0
-0.00362688 0.024936 0
-0.0038447 0.0247024 0
-0.00408118 0.0244257 0
-0.00430955 0.0241338 0
-0.0045548 0.0237901 0
-0.00478909 0.023429 0
-0.00500612 0.0230621 0
-0.0052119 0.022681 0
-0.00539096 0.0223189 0
-0.00556006 0.0219466 0
-0.00570659 0.0215961 0
-0.00584448 0.0212383 0
-0.00596995 0.0208848 0
-0.00608708 0.0205261 0
-0.00620283 0.0201382 0
-0.00630925 0.0197453 0
-0.00641231 0.0193219 0
-0.00650473 0.0188951 0
-0.00659172 0.0184366 0
-0.00666694 0.0179758 0
-0.00673432 0.0174833 0
-0.0067888 0.0169903 0
-0.00683303 0.0164654 0
-0.00686335 0.0159427 0
-0.00688088 0.0153889 0
-0.00688375 0.0148403 0
-0.00687136 0.0142626 0
-0.00684381 0.0136931 0
-0.00679871 0.0130971 0
-0.00673838 0.0125139 0
-0.00665845 0.0119076 0
-0.00656366 0.0113187 0
-0.00644762 0.0107114 0
-0.00631759 0.010127 0
-0.00616517 0.00953049 0
-0.00600013 0.00896293 0
-0.00581219 0.0083917 0
-0.00561361 0.00785717 0
-0.00539231 0.00733021 0
-0.00516299 0.00685011 0
-0.00491213 0.00639379 0
-0.00465704 0.00599937 0
-0.00438337 0.00565322 0
-0.00411122 0.00539179 0
6.928e-07 0.0287501 0
-0.00123886 0.0285519 0
-0.00211032 0.0281656 0
-0.00271744 0.0277634 0
-0.00314045 0.0274112 0
-0.00343694 0.0271253 0
-0.00388104 0.0266299 0
-0.00434748 0.0260098 0
-0.00482725 0.0252415 0
-0.00524862 0.0244265 0
-0.00559401 0.0236267 0
-0.00587466 0.0228557 0
-0.00611253 0.0220809 0
-0.00632857 0.0212321 0
-0.00651641 0.0203085 0
-0.00666936 0.0193107 0
-0.00678036 0.0182419 0
-0.00684252 0.0171071 0
-0.00684922 0.0159142 0
-0.00679463 0.0146744 0
-0.00667408 0.0134014 0
-0.00648441 0.0121126 0
-0.00622427 0.0108286 0
-0.00589435 0.0095747 0
-0.00549751 0.00838294 0
-0.00503885 0.00729496 0
-0.00452653 0.00637029 0
-0.00397417 0.00569915 0
7.1943e-07 0.0308995 0
-0.000629843 0.0308451 0
-0.00125339 0.0306838 0
-0.00169813 0.0305006 0
-0.00213424 0.0302633 0
-0.00244398 0.030058 0
-0.00274712 0.0298258 0
-0.00296245 0.0296409 0
-0.00317358 0.0294426 0
-0.00332413 0.0292905 0
-0.00347216 0.0291317 0
-0.00369867 0.0288701 0
-0.0039187 0.028593 0
-0.00415705 0.0282649 0
-0.00438662 0.0279189 0
-0.0046324 0.0275116 0
-0.00486635 0.027084 0
-0.00508218 0.0266497 0
-0.00528589 0.0261988 0
-0.00546229 0.0257706 0
-0.005628 0.0253307 0
-0.00577077 0.0249166 0
-0.0059043 0.0244943 0
-0.00602498 0.0240772 0
-0.0061368 0.0236542 0
-0.00624631 0.0231972 0
-0.00634592 0.0227345 0
-0.00644115 0.0222365 0
-0.00652517 0.0217346 0
-0.00660263 0.0211961 0
-0.00666778 0.0206553 0
-0.00672391 0.0200779 0
-0.00676668 0.0195005 0
-0.006798 0.0188865 0
-0.00681509 0.0182757 0
-0.00681825 0.0176293 0
-0.00680661 0.0169897 0
-0.00677873 0.0163171 0
-0.00673581 0.015655 0
-0.00667459 0.0149628 0
-0.00659858 0.0142863 0
-0.00650256 0.0135838 0
-0.00639247 0.0129023 0
-0.00626112 0.0122 0
-0.00611694 0.0115247 0
-0.00595077 0.0108356 0
-0.00577342 0.01018 0
-0.00557395 0.00951976 0
-0.00536541 0.00890112 0
-0.00513509 0.00828982 0
-0.00489814 0.00773075 0
-0.00464037 0.00719621 0
-0.00437913 0.00672983 0
-0.00409911 0.00631419 0
-0.00382005 0.00599137 0
7.54003e-07 0.0330955 0
-0.00126844 0.0328615 0
-0.002159 0.0324052 0
-0.00277779 0.0319305 0
-0.00320776 0.0315148 0
-0.00350841 0.0311776 0
-0.00395734 0.0305934 0
-0.00442658 0.0298625 0
-0.00490595 0.0289579 0
-0.00532319 0.0279991 0
-0.00566146 0.0270593 0
-0.00593279 0.0261545 0
-0.0061592 0.0252464 0
-0.00636055 0.0242528 0
-0.0065302 0.0231735 0
-0.00666129 0.0220096 0
-0.00674676 0.0207657 0
-0.00677994 0.019448 0
-0.00675471 0.0180662 0
-0.00666608 0.0166342 0
-0.00651056 0.0151678 0
-0.00628648 0.0136869 0
-0.00599416 0.0122145 0
-0.0056359 0.0107779 0
-0.00521585 0.00941084 0
-0.00473943 0.00815661 0
-0.00421344 0.00707705 0
-0.00364743 0.00626717 0
7.85654e-07 0.0353413 0
-0.000645388 0.0352775 0
-0.00128389 0.0350878 0
-0.00173883 0.0348726 0
-0.00218437 0.0345938 0
-0.00250033 0.0343526 0
-0.00280913 0.0340799 0
-0.00302816 0.0338628 0
-0.00324261 0.03363 0
-0.00339533 0.0334514 0
-0.00354532 0.033265 0
-0.00377446 0.0329581 0
-0.00399653 0.032633 0
-0.00423647 0.0322482 0
-0.00446686 0.0318425 0
-0.00471261 0.0313653 0
-0.00494549 0.0308644 0
-0.00515925 0.0303559 0
-0.00535989 0.0298284 0
-0.00553257 0.0293277 0
-0.0056937 0.0288136 0
-0.00583151 0.02833 0
-0.00595937 0.0278371 0
-0.00607389 0.0273507 0
-0.00617892 0.0268577 0
-0.00628052 0.0263254 0
-0.00637157 0.0257869 0
-0.00645697 0.0252078 0
-0.00653052 0.0246249 0
-0.00659614 0.024 0
-0.00664883 0.0233731 0
-0.00669109 0.0227044 0
-0.00671946 0.0220367 0
-0.00673495 0.0213274 0
-0.00673585 0.0206229 0
-0.00672149 0.0198783 0
-0.0066922 0.0191426 0
-0.00664555 0.0183701 0
-0.00658403 0.0176108 0
-0.00650338 0.0168181 0
-0.00640852 0.0160447 0
-0.00629322 0.0152425 0
-0.00616487 0.0144653 0
-0.0060153 0.0136654 0
-0.00585434 0.0128969 0
-0.00567196 0.0121131 0
-0.00548017 0.0113675 0
-0.00526727 0.0106162 0
-0.00504723 0.00991132 0
-0.00480663 0.0092131 0
-0.00456113 0.00857197 0
-0.00429577 0.00795507 0
-0.00402794 0.00741151 0
-0.00374127 0.00691931 0
-0.00345495 0.00652624 0
8.23119e-07 0.0376421 0
-0.0012996 0.0373682 0
-0.0022101 0.0368344 0
-0.00284087 0.0362792 0
-0.00327782 0.0357932 0
-0.00358252 0.035399 0
-0.00403585 0.0347164 0
-0.00450699 0.033863 0
-0.00498441 0.0328076 0
-0.00539538 0.0316903 0
-0.00572402 0.0305965 0
-0.00598327 0.0295447 0
-0.0061951 0.0284906 0
-0.00637804 0.027339 0
-0.00652511 0.0260905 0
-0.00662928 0.024747 0
-0.00668353 0.0233146 0
-0.00668146 0.0218013 0
-0.00661762 0.0202194 0
-0.00648809 0.018585 0
-0.00629081 0.0169169 0
-0.00602591 0.0152374 0
-0.0056957 0.0135717 0
-0.00530443 0.0119485 0
-0.00485775 0.0104024 0
-0.00436146 0.00897652 0
-0.00382088 0.00773278 0
-0.00324083 0.00676777 0
8.59198e-07 0.0400013 0
-0.00066145 0.0399269 0
-0.00131537 0.0397057 0
-0.00178077 0.0394548 0
-0.00223588 0.0391298 0
-0.00255813 0.0388487 0
-0.00287256 0.0385309 0
-0.00309521 0.0382779 0
-0.00331288 0.0380067 0
-0.00346766 0.0377987 0
-0.00361946 0.0375816 0
-0.00385092 0.0372242 0