# vtk DataFile Version 2.0
./vtk
ASCII

DATASET UNSTRUCTURED_GRID
POINTS 1493 double
0 0 0.0
0.519 0 0.0
1.038 0 0.0
1.3415 0 0.0
1.645 0 0.0
1.8225 0 0.0
2 0 0.0
2.229 0 0.0
2.458 0 0.0
2.729 0 0.0
3 0 0.0
3.2657 0 0.0
3.5314 0 0.0
3.7657 0 0.0
4 0 0.0
4.219 0 0.0
4.438 0 0.0
4.6783 0 0.0
4.9186 0 0.0
5.1823 0 0.0
5.4459 0 0.0
5.7353 0 0.0
6.0246 0 0.0
6.3422 0 0.0
6.6597 0 0.0
7.0081 0 0.0
7.3565 0 0.0
7.7388 0 0.0
8.1212 0 0.0
8.5407 0 0.0
8.9602 0 0.0
9.4206 0 0.0
9.881 0 0.0
10.3861 0 0.0
10.8913 0 0.0
11.4457 0 0.0
12 0 0.0
0 0.2222 0.0
1.038 0.2222 0.0
1.645 0.2222 0.0
2 0.2222 0.0
2.458 0.2222 0.0
3 0.2222 0.0
3.5314 0.2222 0.0
4 0.2222 0.0
4.438 0.2222 0.0
4.9186 0.2222 0.0
5.4459 0.2222 0.0
6.0246 0.2222 0.0
6.6597 0.2222 0.0
7.3565 0.2222 0.0
8.1212 0.2222 0.0
8.9602 0.2222 0.0
9.881 0.2222 0.0
10.8913 0.2222 0.0
12 0.2222 0.0
0 0.4444 0.0
0.519 0.4444 0.0
1.038 0.4444 0.0
1.3415 0.4444 0.0
1.645 0.4444 0.0
1.8225 0.4444 0.0
2 0.4444 0.0
2.229 0.4444 0.0
2.458 0.4444 0.0
2.729 0.4444 0.0
3 0.4444 0.0
3.2657 0.4444 0.0
3.5314 0.4444 0.0
3.7657 0.4444 0.0
4 0.4444 0.0
4.219 0.4444 0.0
4.438 0.4444 0.0
4.6783 0.4444 0.0
4.9186 0.4444 0.0
5.1823 0.4444 0.0
5.4459 0.4444 0.0
5.7353 0.4444 0.0
6.0246 0.4444 0.0
6.3422 0.4444 0.0
6.6597 0.4444 0.0
7.0081 0.4444 0.0
7.3565 0.4444 0.0
7.7388 0.4444 0.0
8.1212 0.4444 0.0
8.5407 0.4444 0.0
8.9602 0.4444 0.0
9.4206 0.4444 0.0
9.881 0.4444 0.0
10.3861 0.4444 0.0
10.8913 0.4444 0.0
11.4457 0.4444 0.0
12 0.4444 0.0
0 0.6667 0.0
1.038 0.6667 0.0
1.645 0.6667 0.0
2 0.6667 0.0
2.458 0.6667 0.0
3 0.6667 0.0
3.5314 0.6667 0.0
4 0.6667 0.0
4.438 0.6667 0.0
4.9186 0.6667 0.0
5.4459 0.6667 0.0
6.0246 0.6667 0.0
6.6597 0.6667 0.0
7.3565 0.6667 0.0
8.1212 0.6667 0.0
8.9602 0.6667 0.0
9.881 0.6667 0.0
10.8913 0.6667 0.0
12 0.6667 0.0
0 0.8889 0.0
0.519 0.8889 0.0
1.038 0.8889 0.0
1.3415 0.8889 0.0
1.645 0.8889 0.0
1.8225 0.8889 0.0
2 0.8889 0.0
2.229 0.8889 0.0
2.458 0.8889 0.0
2.729 0.8889 0.0
3 0.8889 0.0
3.2657 0.8889 0.0
3.5314 0.8889 0.0
3.7657 0.8889 0.0
4 0.8889 0.0
4.219 0.8889 0.0
4.438 0.8889 0.0
4.6783 0.8889 0.0
4.9186 0.8889 0.0
5.1823 0.8889 0.0
5.4459 0.8889 0.0
5.7353 0.8889 0.0
6.0246 0.8889 0.0
6.3422 0.8889 0.0
6.6597 0.8889 0.0
7.0081 0.8889 0.0
7.3565 0.8889 0.0
7.7388 0.8889 0.0
8.1212 0.8889 0.0
8.5407 0.8889 0.0
8.9602 0.8889 0.0
9.4206 0.8889 0.0
9.881 0.8889 0.0
10.3861 0.8889 0.0
10.8913 0.8889 0.0
11.4457 0.8889 0.0
12 0.8889 0.0
0 1.1111 0.0
1.038 1.1111 0.0
1.645 1.1111 0.0
2 1.1111 0.0
2.458 1.1111 0.0
3 1.1111 0.0
3.5314 1.1111 0.0
4 1.1111 0.0
4.438 1.1111 0.0
4.9186 1.1111 0.0
5.4459 1.1111 0.0
6.0246 1.1111 0.0
6.6597 1.1111 0.0
7.3565 1.1111 0.0
8.1212 1.1111 0.0
8.9602 1.1111 0.0
9.881 1.1111 0.0
10.8913 1.1111 0.0
12 1.1111 0.0
0 1.3333 0.0
0.519 1.3333 0.0
1.038 1.3333 0.0
1.3415 1.3333 0.0
1.645 1.3333 0.0
1.8225 1.3333 0.0
2 1.3333 0.0
2.229 1.3333 0.0
2.458 1.3333 0.0
2.729 1.3333 0.0
3 1.3333 0.0
3.2657 1.3333 0.0
3.5314 1.3333 0.0
3.7657 1.3333 0.0
4 1.3333 0.0
4.219 1.3333 0.0
4.438 1.3333 0.0
4.6783 1.3333 0.0
4.9186 1.3333 0.0
5.1823 1.3333 0.0
5.4459 1.3333 0.0
5.7353 1.3333 0.0
6.0246 1.3333 0.0
6.3422 1.3333 0.0
6.6597 1.3333 0.0
7.0081 1.3333 0.0
7.3565 1.3333 0.0
7.7388 1.3333 0.0
8.1212 1.3333 0.0
8.5407 1.3333 0.0
8.9602 1.3333 0.0
9.4206 1.3333 0.0
9.881 1.3333 0.0
10.3861 1.3333 0.0
10.8913 1.3333 0.0
11.4457 1.3333 0.0
12 1.3333 0.0
0 1.5556 0.0
1.038 1.5556 0.0
1.645 1.5556 0.0
2 1.5556 0.0
2.458 1.5556 0.0
3 1.5556 0.0
3.5314 1.5556 0.0
4 1.5556 0.0
4.438 1.5556 0.0
4.9186 1.5556 0.0
5.4459 1.5556 0.0
6.0246 1.5556 0.0
6.6597 1.5556 0.0
7.3565 1.5556 0.0
8.1212 1.5556 0.0
8.9602 1.5556 0.0
9.881 1.5556 0.0
10.8913 1.5556 0.0
12 1.5556 0.0
0 1.7778 0.0
0.519 1.7778 0.0
1.038 1.7778 0.0
1.3415 1.7778 0.0
1.645 1.7778 0.0
1.8225 1.7778 0.0
2 1.7778 0.0
2.229 1.7778 0.0
2.458 1.7778 0.0
2.729 1.7778 0.0
3 1.7778 0.0
3.2657 1.7778 0.0
3.5314 1.7778 0.0
3.7657 1.7778 0.0
4 1.7778 0.0
4.219 1.7778 0.0
4.438 1.7778 0.0
4.6783 1.7778 0.0
4.9186 1.7778 0.0
5.1823 1.7778 0.0
5.4459 1.7778 0.0
5.7353 1.7778 0.0
6.0246 1.7778 0.0
6.3422 1.7778 0.0
6.6597 1.7778 0.0
7.0081 1.7778 0.0
7.3565 1.7778 0.0
7.7388 1.7778 0.0
8.1212 1.7778 0.0
8.5407 1.7778 0.0
8.9602 1.7778 0.0
9.4206 1.7778 0.0
9.881 1.7778 0.0
10.3861 1.7778 0.0
10.8913 1.7778 0.0
11.4457 1.7778 0.0
12 1.7778 0.0
0 2 0.0
1.038 2 0.0
1.645 2 0.0
2 2 0.0
2.458 2 0.0
3 2 0.0
3.5314 2 0.0
4 2 0.0
4.438 2 0.0
4.9186 2 0.0
5.4459 2 0.0
6.0246 2 0.0
6.6597 2 0.0
7.3565 2 0.0
8.1212 2 0.0
8.9602 2 0.0
9.881 2 0.0
10.8913 2 0.0
12 2 0.0
0 2.2222 0.0
0.519 2.2222 0.0
1.038 2.2222 0.0
1.3415 2.2222 0.0
1.645 2.2222 0.0
1.8225 2.2222 0.0
2 2.2222 0.0
2.229 2.2222 0.0
2.458 2.2222 0.0
2.729 2.2222 0.0
3 2.2222 0.0
3.2657 2.2222 0.0
3.5314 2.2222 0.0
3.7657 2.2222 0.0
4 2.2222 0.0
4.219 2.2222 0.0
4.438 2.2222 0.0
4.6783 2.2222 0.0
4.9186 2.2222 0.0
5.1823 2.2222 0.0
5.4459 2.2222 0.0
5.7353 2.2222 0.0
6.0246 2.2222 0.0
6.3422 2.2222 0.0
6.6597 2.2222 0.0
7.0081 2.2222 0.0
7.3565 2.2222 0.0
7.7388 2.2222 0.0
8.1212 2.2222 0.0
8.5407 2.2222 0.0
8.9602 2.2222 0.0
9.4206 2.2222 0.0
9.881 2.2222 0.0
10.3861 2.2222 0.0
10.8913 2.2222 0.0
11.4457 2.2222 0.0
12 2.2222 0.0
0 2.4444 0.0
1.038 2.4444 0.0
1.645 2.4444 0.0
2 2.4444 0.0
2.458 2.4444 0.0
3 2.4444 0.0
3.5314 2.4444 0.0
4 2.4444 0.0
4.438 2.4444 0.0
4.9186 2.4444 0.0
5.4459 2.4444 0.0
6.0246 2.4444 0.0
6.6597 2.4444 0.0
7.3565 2.4444 0.0
8.1212 2.4444 0.0
8.9602 2.4444 0.0
9.881 2.4444 0.0
10.8913 2.4444 0.0
12 2.4444 0.0
0 2.6667 0.0
0.519 2.6667 0.0
1.038 2.6667 0.0
1.3415 2.6667 0.0
1.645 2.6667 0.0
1.8225 2.6667 0.0
2 2.6667 0.0
2.229 2.6667 0.0
2.458 2.6667 0.0
2.729 2.6667 0.0
3 2.6667 0.0
3.2657 2.6667 0.0
3.5314 2.6667 0.0
3.7657 2.6667 0.0
4 2.6667 0.0
4.219 2.6667 0.0
4.438 2.6667 0.0
4.6783 2.6667 0.0
4.9186 2.6667 0.0
5.1823 2.6667 0.0
5.4459 2.6667 0.0
5.7353 2.6667 0.0
6.0246 2.6667 0.0
6.3422 2.6667 0.0
6.6597 2.6667 0.0
7.0081 2.6667 0.0
7.3565 2.6667 0.0
7.7388 2.6667 0.0
8.1212 2.6667 0.0
8.5407 2.6667 0.0
8.9602 2.6667 0.0
9.4206 2.6667 0.0
9.881 2.6667 0.0
10.3861 2.6667 0.0
10.8913 2.6667 0.0
11.4457 2.6667 0.0
12 2.6667 0.0
0 2.8889 0.0
1.038 2.8889 0.0
1.645 2.8889 0.0
2 2.8889 0.0
2.458 2.8889 0.0
3 2.8889 0.0
3.5314 2.8889 0.0
4 2.8889 0.0
4.438 2.8889 0.0
4.9186 2.8889 0.0
5.4459 2.8889 0.0
6.0246 2.8889 0.0
6.6597 2.8889 0.0
7.3565 2.8889 0.0
8.1212 2.8889 0.0
8.9602 2.8889 0.0
9.881 2.8889 0.0
10.8913 2.8889 0.0
12 2.8889 0.0
0 3.1111 0.0
0.519 3.1111 0.0
1.038 3.1111 0.0
1.3415 3.1111 0.0
1.645 3.1111 0.0
1.8225 3.1111 0.0
2 3.1111 0.0
2.229 3.1111 0.0
2.458 3.1111 0.0
2.729 3.1111 0.0
3 3.1111 0.0
3.2657 3.1111 0.0
3.5314 3.1111 0.0
3.7657 3.1111 0.0
4 3.1111 0.0
4.219 3.1111 0.0
4.438 3.1111 0.0
4.6783 3.1111 0.0
4.9186 3.1111 0.0
5.1823 3.1111 0.0
5.4459 3.1111 0.0
5.7353 3.1111 0.0
6.0246 3.1111 0.0
6.3422 3.1111 0.0
6.6597 3.1111 0.0
7.0081 3.1111 0.0
7.3565 3.1111 0.0
7.7388 3.1111 0.0
8.1212 3.1111 0.0
8.5407 3.1111 0.0
8.9602 3.1111 0.0
9.4206 3.1111 0.0
9.881 3.1111 0.0
10.3861 3.1111 0.0
10.8913 3.1111 0.0
11.4457 3.1111 0.0
12 3.1111 0.0
0 3.3333 0.0
1.038 3.3333 0.0
1.645 3.3333 0.0
2 3.3333 0.0
2.458 3.3333 0.0
3 3.3333 0.0
3.5314 3.3333 0.0
4 3.3333 0.0
4.438 3.3333 0.0
4.9186 3.3333 0.0
5.4459 3.3333 0.0
6.0246 3.3333 0.0
6.6597 3.3333 0.0
7.3565 3.3333 0.0
8.1212 3.3333 0.0
8.9602 3.3333 0.0
9.881 3.3333 0.0
10.8913 3.3333 0.0
12 3.3333 0.0
0 3.5556 0.0
0.519 3.5556 0.0
1.038 3.5556 0.0
1.3415 3.5556 0.0
1.645 3.5556 0.0
1.8225 3.5556 0.0
2 3.5556 0.0
2.229 3.5556 0.0
2.458 3.5556 0.0
2.729 3.5556 0.0
3 3.5556 0.0
3.2657 3.5556 0.0
3.5314 3.5556 0.0
3.7657 3.5556 0.0
4 3.5556 0.0
4.219 3.5556 0.0
4.438 3.5556 0.0
4.6783 3.5556 0.0
4.9186 3.5556 0.0
5.1823 3.5556 0.0
5.4459 3.5556 0.0
5.7353 3.5556 0.0
6.0246 3.5556 0.0
6.3422 3.5556 0.0
6.6597 3.5556 0.0
7.0081 3.5556 0.0
7.3565 3.5556 0.0
7.7388 3.5556 0.0
8.1212 3.5556 0.0
8.5407 3.5556 0.0
8.9602 3.5556 0.0
9.4206 3.5556 0.0
9.881 3.5556 0.0
10.3861 3.5556 0.0
10.8913 3.5556 0.0
11.4457 3.5556 0.0
12 3.5556 0.0
0 3.7778 0.0
1.038 3.7778 0.0
1.645 3.7778 0.0
2 3.7778 0.0
2.458 3.7778 0.0
3 3.7778 0.0
3.5314 3.7778 0.0
4 3.7778 0.0
4.438 3.7778 0.0
4.9186 3.7778 0.0
5.4459 3.7778 0.0
6.0246 3.7778 0.0
6.6597 3.7778 0.0
7.3565 3.7778 0.0
8.1212 3.7778 0.0
8.9602 3.7778 0.0
9.881 3.7778 0.0
10.8913 3.7778 0.0
12 3.7778 0.0
0 4 0.0
0.519 4 0.0
1.038 4 0.0
1.3415 4 0.0
1.645 4 0.0
1.8225 4 0.0
2 4 0.0
2.229 4 0.0
2.458 4 0.0
2.729 4 0.0
3 4 0.0
3.2657 4 0.0
3.5314 4 0.0
3.7657 4 0.0
4 4 0.0
4.219 4 0.0
4.438 4 0.0
4.6783 4 0.0
4.9186 4 0.0
5.1823 4 0.0
5.4459 4 0.0
5.7353 4 0.0
6.0246 4 0.0
6.3422 4 0.0
6.6597 4 0.0
7.0081 4 0.0
7.3565 4 0.0
7.7388 4 0.0
8.1212 4 0.0
8.5407 4 0.0
8.9602 4 0.0
9.4206 4 0.0
9.881 4 0.0
10.3861 4 0.0
10.8913 4 0.0
11.4457 4 0.0
12 4 0.0
0 4.1561 0.0
1.038 4.1561 0.0
1.645 4.1561 0.0
2 4.1561 0.0
2.458 4.1561 0.0
3 4.1561 0.0
3.5314 4.1561 0.0
4 4.1561 0.0
4.438 4.1561 0.0
4.9186 4.1561 0.0
5.4459 4.1561 0.0
6.0246 4.1561 0.0
6.6597 4.1561 0.0
7.3565 4.1561 0.0
8.1212 4.1561 0.0
8.9602 4.1561 0.0
9.881 4.1561 0.0
10.8913 4.1561 0.0
12 4.1561 0.0
0 4.3121 0.0
0.519 4.3121 0.0
1.038 4.3121 0.0
1.3415 4.3121 0.0
1.645 4.3121 0.0
1.8225 4.3121 0.0
2 4.3121 0.0
2.229 4.3121 0.0
2.458 4.3121 0.0
2.729 4.3121 0.0
3 4.3121 0.0
3.2657 4.3121 0.0
3.5314 4.3121 0.0
3.7657 4.3121 0.0
4 4.3121 0.0
4.219 4.3121 0.0
4.438 4.3121 0.0
4.6783 4.3121 0.0
4.9186 4.3121 0.0
5.1823 4.3121 0.0
5.4459 4.3121 0.0
5.7353 4.3121 0.0
6.0246 4.3121 0.0
6.3422 4.3121 0.0
6.6597 4.3121 0.0
7.0081 4.3121 0.0
7.3565 4.3121 0.0
7.7388 4.3121 0.0
8.1212 4.3121 0.0
8.5407 4.3121 0.0
8.9602 4.3121 0.0
9.4206 4.3121 0.0
9.881 4.3121 0.0
10.3861 4.3121 0.0
10.8913 4.3121 0.0
11.4457 4.3121 0.0
12 4.3121 0.0
0 4.4624 0.0
1.038 4.4624 0.0
1.645 4.4624 0.0
2 4.4624 0.0
2.458 4.4624 0.0
3 4.4624 0.0
3.5314 4.4624 0.0
4 4.4624 0.0
4.438 4.4624 0.0
4.9186 4.4624 0.0
5.4459 4.4624 0.0
6.0246 4.4624 0.0
6.6597 4.4624 0.0
7.3565 4.4624 0.0
[...]
POINT_DATA 1493
VECTORS  Displacement double
4.37172e-07 0 0
0.000153772 0 0
0.000311526 0 0
0.00040688 0 0
0.000505435 0 0
0.000564802 0 0
0.000625593 0 0
0.000706301 0 0
0.000789776 0 0
0.000892404 0 0
0.000999448 0 0
0.00110891 0 0
0.00122299 0 0
0.00132752 0 0
0.00143576 0 0
0.00154032 0 0
0.0016481 0 0
0.00177007 0 0
0.0018958 0 0
0.002038 0 0
0.00218438 0 0
0.00234971 0 0
0.00251952 0 0
0.00271075 0 0
0.00290648 0 0
0.00312591 0 0
0.00334956 0 0
0.00359906 0 0
0.00385212 0 0
0.00413287 0 0
0.0044161 0 0
0.00472892 0 0
0.00504314 0 0
0.00538881 0 0
0.00573518 0 0
0.00611574 0 0
0.00649659 0 0
4.40098e-07 0.000429533 0
0.000311502 0.000422352 0
0.000505412 0.000411821 0
0.00062558 0.000403709 0
0.000789792 0.00039136 0
0.000999522 0.00037442 0
0.00122315 0.000355921 0
0.00143602 0.000338548 0
0.00164847 0.000321806 0
0.00189631 0.000303282 0
0.00218506 0.000283234 0
0.0025204 0.000262072 0
0.00290758 0.000240354 0
0.00335088 0.000218718 0
0.00385364 0.000197735 0
0.00441778 0.000177763 0
0.00504492 0.000158752 0
0.00573699 0.000140208 0
0.00649838 0.000121522 0
4.39596e-07 0.000859714 0
0.000153713 0.000856046 0
0.00031143 0.000845315 0
0.000406779 0.000835861 0
0.000505347 0.000824205 0
0.000564732 0.000816414 0
0.000625548 0.000807944 0
0.000706305 0.000796066 0
0.000789844 0.000783191 0
0.000892574 0.000766777 0
0.000999747 0.000749235 0
0.00110937 0.000731085 0
0.00122363 0.000712154 0
0.00132835 0.000694934 0
0.0014368 0.000677335 0
0.00154157 0.000660635 0
0.00164959 0.000643784 0
0.00177183 0.000625216 0
0.00189786 0.000606668 0
0.0020404 0.000586454 0
0.00218713 0.000566507 0
0.00235286 0.000545035 0
0.00252307 0.000524128 0
0.00271474 0.000501942 0
0.0029109 0.000480654 0
0.00313079 0.000458407 0
0.00335487 0.000437364 0
0.00360479 0.000415677 0
0.00385823 0.000395406 0
0.00413934 0.000374716 0
0.00442285 0.000355489 0
0.0047359 0.00033586 0
0.00505028 0.000317506 0
0.00539605 0.000298529 0
0.00574245 0.000280459 0
0.00612296 0.000261402 0
0.00650374 0.000243089 0
4.44689e-07 0.00129127 0
0.000311323 0.0012696 0
0.000505255 0.00123782 0
0.000625514 0.00121334 0
0.000789955 0.00117606 0
0.00100015 0.00112493 0
0.00122446 0.0010691 0
0.00143813 0.00101668 0
0.00165149 0.000966177 0
0.00190046 0.000910325 0
0.0021906 0.000849915 0
0.00252755 0.000786201 0
0.00291647 0.000720884 0
0.00336153 0.000655898 0
0.0038659 0.000592966 0
0.00443131 0.000533147 0
0.00505923 0.000476259 0
0.00575154 0.000420767 0
0.00651273 0.000364695 0
4.47023e-07 0.00172443 0
0.000153565 0.00171703 0
0.000311196 0.00169538 0
0.000406542 0.00167631 0
0.000505162 0.00165279 0
0.000564607 0.00163707 0
0.000625508 0.00161998 0
0.000706414 0.00159601 0
0.000790154 0.00157002 0
0.000893193 0.0015369 0
0.00100076 0.0015015 0
0.00111085 0.00146487 0
0.00122568 0.00142668 0
0.00133096 0.00139193 0
0.00144004 0.00135644 0
0.00154546 0.00132276 0
0.00165419 0.00128879 0
0.00177726 0.00125137 0
0.00190417 0.001214 0
0.00204773 0.0011733 0
0.00219552 0.00113316 0
0.00236245 0.00108997 0
0.00253387 0.00104795 0
0.00272687 0.0010034 0
0.00292432 0.000960687 0
0.00314557 0.000916097 0
0.00337092 0.000873965 0
0.00362212 0.000830589 0
0.00387669 0.00079009 0
0.00415884 0.000748798 0
0.0044432 0.000710461 0
0.00475695 0.000671351 0
0.00507179 0.000634798 0
0.00541783 0.000597005 0
0.0057643 0.000560988 0
0.00614472 0.000522946 0
0.00652533 0.000486236 0
4.53294e-07 0.00215988 0
0.000311076 0.00212336 0
0.000505105 0.00206978 0
0.000625569 0.0020285 0
0.000790491 0.00196564 0
0.00100163 0.00187942 0
0.00122733 0.00178528 0
0.0014426 0.00169693 0
0.00165777 0.00161186 0
0.00190904 0.00151787 0
0.00220195 0.00141633 0
0.00254211 0.00130941 0
0.00293452 0.00120005 0
0.00338309 0.00109153 0
0.00389064 0.000986736 0
0.00445855 0.000887403 0
0.00508799 0.00079312 0
0.00578075 0.000701128 0
0.0065416 0.000607699 0
4.58176e-07 0.00259828 0
0.000153419 0.00258703 0
0.000310997 0.0025541 0
0.000406387 0.00252509 0
0.000505133 0.0024893 0
0.000564697 0.00246538 0
0.000625757 0.00243937 0
0.000706934 0.00240288 0
0.000791027 0.00236334 0
0.000894599 0.00231291 0
0.00100283 0.00225903 0
0.00111372 0.00220328 0
0.00122949 0.00214515 0
0.00133573 0.0020923 0
0.00144588 0.00203831 0
0.00155239 0.00198711 0
0.0016623 0.00193548 0
0.00178676 0.00187865 0
0.00191515 0.00182193 0
0.00206041 0.0017602 0
0.00220997 0.00169936 0
0.0023789 0.00163399 0
0.00255234 0.00157047 0
0.00274754 0.0015032 0
0.00294715 0.00143882 0
0.00317065 0.00137171 0
0.00339812 0.00130841 0
0.00365141 0.00124337 0
0.00390783 0.00118275 0
0.00419169 0.00112105 0
0.00447742 0.00106385 0
0.00479228 0.00100558 0
0.00510788 0.000951156 0
0.00545435 0.00089488 0
0.00580092 0.000841185 0
0.00618117 0.000784311 0
0.00656154 0.000729117 0
4.64631e-07 0.00304029 0
0.000311003 0.00298832 0
0.000505309 0.00291203 0
0.000626142 0.00285323 0
0.000791845 0.00276367 0
0.00100446 0.00264081 0
0.00123226 0.0025067 0
0.00144997 0.00238091 0
0.00166788 0.0022599 0
0.0019226 0.00212636 0
0.0022197 0.00198236 0
0.00256468 0.00183114 0
0.00296231 0.00167697 0
0.00341609 0.00152458 0
0.00392832 0.00137808 0
0.00449986 0.00123979 0
0.00513149 0.0011089 0
0.00582485 0.000981157 0
0.00658519 0.000850473 0
4.72141e-07 0.00348619 0
0.000153441 0.00347092 0
0.000311149 0.00342618 0
0.000406703 0.00338674 0
0.000505715 0.00333809 0
0.000565493 0.00330555 0
0.000626818 0.00327017 0
0.00070842 0.00322054 0
0.000793046 0.00316673 0
0.000897403 0.00309811 0
0.00100661 0.00302478 0
0.00111864 0.00294893 0
0.00123575 0.00286985 0
0.00134334 0.00279796 0
0.00145499 0.00272457 0
0.00156305 0.002655 0
0.00167463 0.00258489 0
0.00180105 0.00250776 0
0.00193152 0.00243087 0
0.00207918 0.00234726 0
0.00223124 0.00226499 0
0.00240297 0.00217671 0
0.00257924 0.00209106 0
0.00277752 0.00200056 0
0.00298012 0.00191411 0
0.00320675 0.00182423 0
0.00343712 0.00173965 0
0.00369329 0.00165297 0
0.00395222 0.0015724 0
0.00423838 0.00149059 0
0.00452595 0.00141492 0
0.0048423 0.00133796 0
0.00515887 0.00126615 0
0.00550589 0.0011919 0
0.00585257 0.00112093 0
0.00623258 0.00104548 0
0.00661258 0.000971723 0
4.76486e-07 0.00393663 0
0.000311504 0.0038684 0
0.000506448 0.00376816 0
0.000627893 0.00369086 0
0.000794754 0.00357307 0
0.00100942 0.00341142 0
0.0012401 0.00323499 0
0.00146109 0.00306961 0
0.00168269 0.0029107 0
0.00194205 0.00273563 0
0.00224475 0.00254732 0
0.00259616 0.00235025 0
0.00300071 0.00215022 0
0.00346132 0.00195359 0
0.00397961 0.00176565 0
0.00455575 0.00158924 0
0.00519007 0.00142291 0
0.00588411 0.00126051 0
0.00664372 0.00109285 0
4.8603e-07 0.0043923 0
0.000153896 0.00437278 0
0.000312155 0.00431555 0
0.000408111 0.00426508 0
0.000507633 0.00420278 0
0.000567768 0.0041611 0
0.000629508 0.00411577 0
0.000711741 0.00405214 0
0.000797123 0.00398315 0
0.000902558 0.00389515 0
0.00101307 0.00380109 0
0.00112661 0.0037038 0
0.00124548 0.00360239 0
0.00135483 0.00351024 0
0.00146844 0.0034162 0
0.0015785 0.00332711 0
0.00169224 0.0032374 0
0.0018212 0.0031388 0
0.00195437 0.00304061 0
0.00210514 0.002934 0
0.0022604 0.00282926 0
0.00243574 0.0027171 0
0.00261564 0.00260853 0
0.00281785 0.00249409 0
0.00302426 0.0023851 0
0.00325484 0.00227212 0
0.00348886 0.00216617 0
0.00374861 0.00205794 0
0.00401063 0.00195767 0
0.0042996 0.0018562 0
0.00458936 0.00176261 0
0.00490747 0.00166763 0
0.00522515 0.00157911 0
0.00557277 0.00148758 0
0.00591951 0.00139992 0
0.00629917 0.00130628 0
0.00667865 0.00121396 0
4.85153e-07 0.0048536 0
0.000313199 0.00476814 0
0.00050941 0.00464243 0
0.000631825 0.00454537 0
0.000800332 0.00439737 0
0.00101773 0.00419413 0
0.00125209 0.00397229 0
0.00147725 0.00376449 0
0.0017035 0.00356507 0
0.00196869 0.00334583 0
0.00227841 0.00311075 0
0.00263785 0.0028658 0
0.00305095 0.0026186 0
0.00351988 0.00237726 0
0.00404539 0.00214833 0
0.00462687 0.00193494 0
0.00526417 0.0017347 0
0.00595881 0.0015391 0
0.00671739 0.001335 0
4.9602e-07 0.00532145 0
0.000155186 0.00529744 0
0.000314772 0.00522695 0
0.000411545 0.00516472 0
0.000511965 0.00508784 0
0.000572678 0.00503637 0
0.000635048 0.00498036 0
0.000718188 0.00490171 0
0.000804609 0.00481637 0
0.000911471 0.00470749 0
0.00102366 0.00459107 0
0.00113912 0.00447064 0
0.00126019 0.00434513 0
0.00137173 0.00423111 0
0.00148777 0.0041148 0
0.0016003 0.00400471 0
0.0017167 0.00389393 0
0.00184879 0.00377232 0
0.00198526 0.00365138 0
0.00213983 0.00352029 0
0.00229903 0.00339177 0
0.00247877 0.00325447 0
0.00266307 0.00312195 0
0.00287004 0.00298272 0
0.00308102 0.00285058 0
0.00331631 0.00271414 0
0.00355462 0.00258672 0
0.00381853 0.0024571 0
0.00408409 0.00233752 0
0.00437621 0.00221698 0
0.0046684 0.00210618 0
0.00498837 0.00199403 0
0.0053072 0.00188968 0
0.00565536 0.00178176 0
0.00600205 0.00167816 0
0.00638119 0.0015669 0
0.00675997 0.00145614 0
4.84446e-07 0.00579579 0
0.000317007 0.00569205 0
0.0005155 0.0055391 0
0.000639408 0.00542082 0
0.000810204 0.00524021 0
0.00103111 0.00499191 0
0.00127004 0.0047208 0
0.00150027 0.00446698 0
0.00173214 0.00422375 0
0.00200435 0.00395698 0
0.00232252 0.003672 0
0.00269153 0.00337664 0
0.00311469 0.00308069 0
0.00359322 0.00279421 0
0.00412681 0.00252495 0
0.00471399 0.00227608 0
0.00535424 0.00204386 0
0.00604922 0.00181692 0
0.00680636 0.00157724 0
4.95397e-07 0.00627747 0
0.000157902 0.00624875 0
0.000320107 0.0061642 0
0.000418362 0.00608944 0
0.000520278 0.00599695 0
0.000581889 0.00593497 0
0.000645195 0.00586745 0
0.000729617 0.00577257 0
0.000817439 0.00566953 0
0.00092615 0.00553796 0
0.00104044 0.00539722 0
0.00115826 0.00525156 0
0.001282 0.00509977 0
0.00139617 0.0049619 0
0.00151511 0.00482135 0
0.00163058 0.00468839 0
0.00175015 0.00455474 0
0.00188593 0.00440819 0
0.00202632 0.00426269 0
0.00218538 0.00410531 0
0.0023492 0.00395138 0
0.0025341 0.00378742 0
0.00272355 0.00362972 0
0.00293602 0.00346469 0
0.00315225 0.00330875 0
0.00339286 0.0031485 0
0.00363596 0.00299958 0
0.00390442 0.00284888 0
0.00417376 0.00271053 0
0.00446917 0.00257171 0
0.00476378 0.00244463 0
0.00508554 0.00231639 0
0.00540536 0.00219728 0
0.00575388 0.00207408 0
0.00610033 0.00195551 0
0.00647872 0.0018274 0
0.00685658 0.00169852 0
4.66176e-07 0.00676682 0
0.000324263 0.00664384 0
0.000526589 0.00646186 0
0.000652737 0.00632073 0
0.00082667 0.00610477 0
0.00105203 0.00580732 0
0.00129646 0.00548227 0
0.00153268 0.00517805 0
0.00177112 0.00488695 0
0.00205152 0.00456851 0
0.00237946 0.00422982 0
0.00275947 0.00388105 0
0.00319401 0.00353459 0
0.00368307 0.00320267 0
0.00422511 0.00289411 0
0.00481786 0.00261172 0
0.0054606 0.00234988 0
0.00615538 0.00209387 0
0.00691059 0.00181997 0
4.78851e-07 0.00726457 0
0.000162909 0.007231 0
0.00032977 0.00713171 0
0.000430513 0.00704371 0
0.000534808 0.00693457 0
0.000597777 0.00686129 0
0.000662444 0.00678137 0
0.000748654 0.0066689 0
0.000838348 0.00654661 0
0.000949434 0.00639025 0
0.00106634 0.00622284 0
0.001187 0.00604948 0
0.00131391 0.00586877 0
0.00143117 0.00570466 0
0.00155347 0.00553742 0
0.00167234 0.00537933 0
0.00179555 0.00522057 0
0.00193558 0.00504673 0
0.00208045 0.00487445 0
0.00224464 0.00468852 0
0.00241375 0.00450721 0
0.0026045 0.00431477 0
0.00279974 0.00413043 0
0.00301835 0.00393844 0
0.00324035 0.00375799 0
0.00348672 0.00357362 0
0.00373488 0.00340331 0
0.00400799 0.00323199 0
0.00428109 0.00307562 0
0.00457959 0.00291956 0
0.00487635 0.00277734 0
0.00519953 0.00263432 0
0.00551999 0.00250171 0
0.00586849 0.00236454 0
0.00621438 0.00223215 0
0.00659174 0.00208824 0
0.0069684 0.00194182 0
4.07207e-07 0.00777052 0
0.000336885 0.00762773 0
0.00054533 0.00741509 0
0.00067476 0.00724942 0
0.000852954 0.00699506 0
0.00108391 0.00664372 0
0.00133489 0.00625918 0
0.001578 0.00589928 0
0.00182393 0.00555536 0
0.00211357 0.0051802 0
0.0024525 0.00478317 0
0.00284474 0.00437746 0
0.00329162 0.00397857 0
0.00379161 0.00360115 0
0.00434181 0.00325476 0
0.00493928 0.00294127 0
0.00558349 0.0026526 0
0.00627723 0.00237021 0
0.00702988 0.002064 0
4.12771e-07 0.00828515 0
0.000171466 0.00824681 0
0.000346035 0.00813253 0
0.000450752 0.00803082 0
0.000558674 0.00790414 0
0.000623639 0.00781883 0
0.000690246 0.0077256 0
0.000778926 0.00759412 0
0.000871106 0.00745086 0
0.000985236 0.00726737 0
0.00110538 0.0070706 0
0.00122945 0.00686666 0
0.00136006 0.00665396 0
0.00148085 0.00646078 0
0.00160696 0.00626397 0
0.00172966 0.00607804 0
0.00185692 0.00589149 0
0.00200169 0.00568752 0
0.00215153 0.00548576 0
0.00232141 0.00526861 0
0.00249633 0.00505755 0
0.00269351 0.00483447 0
0.00289504 0.00462186 0
0.00312024 0.00440168 0
0.00334829 0.00419606 0
0.00360053 0.0039874 0
0.00385366 0.003796 0
0.00413115 0.00360481 0
0.00440753 0.00343147 0
0.00470851 0.00325949 0
0.00500675 0.00310353 0
0.00533065 0.00294724 0
0.00565109 0.00280262 0
0.00599899 0.00265298 0
0.00634388 0.00250816 0
0.00671984 0.00234973 0
0.00709499 0.00218674 0
3.33608e-07 0.00865195 0
0.000353874 0.00849256 0
0.000570027 0.00825302 0
0.00070335 0.00806522 0
0.000886333 0.00777566 0
0.00112318 0.00737426 0
0.00138066 0.00693406 0
0.00163035 0.00652193 0
0.00188325 0.00612845 0
0.00218145 0.00570028 0
0.0025305 0.00524928 0
0.00293385 0.00479189 0
0.00339158 0.0043469 0
0.0039006 0.00393103 0
0.00445678 0.0035541 0
0.0050569 0.00321648 0
0.00570103 0.00290748 0
0.00639293 0.00260502 0
0.00714283 0.00227335 0
3.24372e-07 0.00902278 0
0.000180544 0.0089814 0
0.00036311 0.00885691 0
0.000471817 0.00874556 0
0.000583275 0.00860625 0
0.000650141 0.00851212 0
0.000718563 0.00840903 0
0.000809504 0.00826333 0
0.000903907 0.00810425 0
0.00102069 0.00790016 0
0.00114356 0.007681 0
0.00127043 0.00745364 0
0.001404 0.00721637 0
0.00152754 0.00700084 0
0.00165658 0.00678126 0
0.00178216 0.00657388 0
0.00191249 0.00636595 0
0.00206079 0.0061388 0
0.00221434 0.00591446 0
0.00238846 0.00567347 0
0.00256771 0.00543988 0
0.00276963 0.0051938 0
0.00297575 0.00496024 0
0.00320567 0.0047195 0
0.00343794 0.00449586 0
0.00369413 0.00427017 0
0.00395043 0.00406432 0
0.00423051 0.00385982 0
0.00450863 0.00367536 0
0.00481068 0.00349315 0
0.0051093 0.00332851 0
0.00543303 0.00316395 0
0.0057529 0.00301185 0
0.0060999 0.00285444 0
0.00644373 0.0027018 0
0.00681845 0.0025341 0
0.00719234 0.00236028 0
2.14662e-07 0.00938412 0
0.000373469 0.0092123 0
0.000598056 0.00895098 0
0.000735472 0.00874457 0
0.000923336 0.00842474 0
0.00116594 0.00797973 0
0.0014294 0.00749071 0
0.00168487 0.0070326 0
0.00194373 0.00659543 0
0.00224915 0.00612061 0
0.00260672 0.00562252 0
0.0030193 0.0051209 0
0.0034857 0.00463764 0
0.00400131 0.00419114 0
0.00456112 0.00379093 0
0.00516195 0.00343562 0
0.00580474 0.003112 0
0.00649433 0.00279503 0
0.00724157 0.00244443 0
2.04652e-07 0.00974941 0
0.000192576 0.00970568 0
0.000385528 0.00957222 0
0.000499267 0.00945193 0
0.000615096 0.00930045 0
0.000684272 0.00919764 0
0.000754878 0.00908471 0
0.000848513 0.00892465 0
0.000945536 0.00874944 0
0.0010654 0.0085242 0
0.00119137 0.00828194 0
0.00132132 0.00803035 0
0.00145806 0.00776763 0
0.00158448 0.00752888 0
0.00171649 0.00728563 0
0.00184498 0.00705593 0
0.00197834 0.00682571 0
0.00213014 0.00657444 0
0.00228735 0.00632661 0
0.00246564 0.00606094 0
0.00264914 0.00580415 0
0.00285569 0.00553464 0
0.00306626 0.00527997 0
0.00330061 0.00501884 0
0.00353675 0.00477766 0
0.00379636 0.00453572 0
0.0040552 0.00431639 0
0.00433711 0.00409974 0
0.0046162 0.00390533 0
0.0049185 0.00371415 0
0.00521676 0.00354199 0
0.00553964 0.00337032 0
0.00585838 0.00321183 0
0.00620403 0.00304775 0
0.0065465 0.00288834 0
0.00691981 0.00271253 0
0.0072923 0.00252907 0
4.67514e-08 0.0101046 0
0.000398878 0.00992278 0
0.00063386 0.00964121 0
0.000776177 0.00941642 0
0.000969809 0.00906593 0
0.00121904 0.00857608 0
0.00148905 0.00803657 0
0.00175043 0.00753071 0
0.00201517 0.00704805 0
0.00232762 0.00652466 0
0.00269346 0.00597792 0
0.00311488 0.00543147 0
0.00358914 0.00491066 0
0.00410999 0.00443538 0
0.00467169 0.00401427 0
0.00527154 0.00364364 0
0.00591167 0.00330759 0
0.00659817 0.00297819 0
0.00734247 0.00261102 0
3.29601e-08 0.0104628 0
0.000208153 0.0104178 0
0.000414237 0.0102773 0
0.000534144 0.0101492 0
0.00065522 0.00998635 0
0.000727141 0.00987512 0
0.000800328 0.00975245 0
0.000897144 0.00957796 0
0.000997248 0.00938637 0
0.0011207 0.00913946 0
0.00125023 0.00887345 0
0.00138364 0.00859689 0
0.00152379 0.00830788 0
0.00165318 0.00804512 0
0.00178819 0.00777731 0
0.00191952 0.00752442 0
0.00205581 0.00727102 0
0.00221095 0.00699462 0
0.00237166 0.00672236 0
0.00255394 0.0064311 0
0.0027415 0.00615043 0
0.00295244 0.00585701 0
0.00316713 0.00558114 0
0.0034055 0.00529989 0
0.00364493 0.00504175 0
0.00390721 0.00478449 0
0.00416777 0.00455273 0
0.00445055 0.00432517 0
0.00472964 0.00412202 0
0.00503122 0.00392311 0
0.00532826 0.00374457 0
0.0056495 0.0035669 0
0.00596651 0.00340302 0
0.00631034 0.00323328 0
0.00665115 0.00306808 0
0.00702286 0.00288529 0
0.00739387 0.00269344 0
-1.89308e-07 0.0108107 0
0.000431075 0.0106225 0
0.000678502 0.010323 0
0.00082657 0.0100803 0
0.00102699 0.00969888 0
0.00128395 0.00916304 0
0.00156118 0.00857155 0
0.00182857 0.00801634 0
0.00209893 0.00748642 0
0.00241799 0.00691247 0
0.00279159 0.0063154 0
0.00322115 0.00572357 0
0.00370206 0.00516619 0
0.00422635 0.00466423 0
0.00478782 0.0042247 0
0.00538474 0.00384111 0
0.00602078 0.00349465 0
0.0067034 0.00315474 0
0.00744449 0.00277336 0
-2.03444e-07 0.0111604 0
0.00022795 0.0111158 0
0.000450263 0.0109712 0
0.000577519 0.010837 0
0.000704723 0.0106639 0
0.000779829 0.0105447 0
0.000856019 0.0104125 0
0.000956564 0.0102235 0
0.00106031 0.0100152 0
0.00118802 0.00974616 0
0.0013217 0.00945577 0
0.00145902 0.00915357 0
0.00160289 0.00883754 0
0.00173537 0.00855004 0
0.00187334 0.00825688 0
0.00200738 0.00797995 0
0.00214638 0.00770245 0
0.00230459 0.00739988 0
0.00246851 0.00710217 0
0.00265446 0.00678432 0
0.00284575 0.006479 0
0.0030607 0.00616122 0
0.00327906 0.00586407 0
0.00352079 0.00556307 0
0.00376274 0.00528869 0
0.00402672 0.00501715 0
0.00428791 0.00477414 0
0.00457037 0.00453696 0
0.00484834 0.00432629 0
0.0051481 0.00412086 0
0.00544297 0.003937 0
0.00576174 0.00375437 0
0.00607637 0.00358601 0
0.00641788 0.00341153 0
0.00675674 0.00324145 0
0.00712668 0.00305274 0
0.00749612 0.00285377 0
-5.12073e-07 0.011499 0
0.00047109 0.0113101 0
0.000732999 0.0109961 0
0.000887684 0.0107362 0
0.00109609 0.0103235 0
0.00136221 0.00974058 0
0.00164754 0.00909583 0
0.00192101 0.00848989 0
0.00219654 0.00791101 0
0.00252148 0.00728437 0
0.00290206 0.00663516 0
0.00333874 0.00599748 0
0.00382468 0.00540476 0
0.00435009 0.00487845 0
0.00490884 0.00442306 0
0.00550068 0.00402872 0
0.00613112 0.00367371 0
0.00680907 0.00332501 0
0.00754672 0.00293173 0
-5.22084e-07 0.0118383 0
0.000252707 0.0117966 0
0.000494642 0.0116523 0
0.000630397 0.0115144 0
0.000764549 0.0113327 0
0.000843269 0.0112059 0
0.000922902 0.0110644 0
0.0010278 0.0108609 0
0.00113587 0.0106357 0
0.00126868 0.0103439 0
0.00140732 0.0100286 0
0.00154919 0.00970016 0
0.00169717 0.00935654 0
0.00183286 0.00904375 0
0.00197372 0.00872457 0
0.00211022 0.00842284 0
0.00225161 0.00812034 0
0.00241247 0.00779052 0
0.00257914 0.00746625 0
0.00276829 0.00712072 0
0.00296285 0.00678993 0
0.00318126 0.00644733 0
0.00340264 0.00612893 0
0.00364688 0.0058087 0
0.00389032 0.00551896 0
0.00415473 0.00523434 0
0.00441525 0.00498135 0
0.00469599 0.00473589 0
0.00497155 0.00451892 0
0.00526826 0.00430812 0
0.00555996 0.00411995 0
0.00587539 0.00393329 0
0.00618701 0.00376126 0
0.00652572 0.00358286 0
0.00686232 0.00340871 0
0.00723034 0.00321508 0
0.00759815 0.00301025 0
-9.39728e-07 0.0121659 0
0.000520014 0.0119847 0
0.000798284 0.0116609 0
0.000960458 0.0113845 0
0.00117829 0.0109401 0
0.00145549 0.0103089 0
0.00175011 0.00960986 0
0.0020297 0.00895212 0
0.00230973 0.00832265 0
0.00263951 0.00764103 0
0.00302597 0.00693762 0
0.0034684 0.00625364 0
0.00395721 0.00562715 0
0.00448091 0.00507908 0
0.00503407 0.00461036 0
0.00561853 0.00420734 0
0.00624187 0.00384542 0
0.00691439 0.00348946 0
0.0076484 0.00308647 0
-9.39827e-07 0.012492 0