# vtk DataFile Version 2.0
./results/CEE570-HW8/CEE570-HW8-2-T6TC-3872_1
ASCII

DATASET UNSTRUCTURED_GRID
POINTS 8 double
-0.066472 -0.100000 0.0
-0.066917 -0.093020 0.0
-0.074854 -0.100000 0.0
-0.066694 -0.096510 0.0
-0.070885 -0.096510 0.0
-0.070663 -0.100000 0.0
-0.066472 -0.100000 0.0
-0.059588 -0.100000 0.0

CELLS 1 8
8 0 1 2 3 4 5 6 7 

CELL_TYPES 1
23

POINT_DATA 8
Scalars Nodes_ID float 1
Lookup_table default
2.000000
2.000000
2.000000
2.000000
2.000000
2.000000
2.000000
2.000000

Scalars q_1 float 1
Lookup_table default
-0.448512 -0.447755
-0.448512 -0.447755
-0.448512 -0.447755
-0.448512 -0.447755
-0.448512 -0.447755
-0.448512 -0.447755
-0.448512 -0.447755
-0.448512 -0.447755