# vtk DataFile Version 2.0
./results/CEE570-HW8/CEE570-HW8-2-T6TC-3872_0
ASCII

DATASET UNSTRUCTURED_GRID
POINTS 23232 double
-0.066472 -0.100000 0.0
-0.066917 -0.093020 0.0
-0.074854 -0.100000 0.0
-0.066694 -0.096510 0.0
-0.070885 -0.096510 0.0
-0.070663 -0.100000 0.0
-0.066472 -0.100000 0.0
-0.059588 -0.100000 0.0
-0.061921 -0.094971 0.0
-0.063030 -0.100000 0.0
-0.060755 -0.097485 0.0
-0.064197 -0.097485 0.0
-0.015076 -0.100000 0.0
-0.009150 -0.100000 0.0
-0.011950 -0.094789 0.0
-0.012113 -0.100000 0.0
-0.010550 -0.097394 0.0
-0.013513 -0.097394 0.0
0.033341 -0.100000 0.0
0.040771 -0.100000 0.0
0.036547 -0.093143 0.0
0.037056 -0.100000 0.0
0.038659 -0.096571 0.0
0.034944 -0.096571 0.0
0.063063 -0.100000 0.0
0.072297 -0.100000 0.0
0.065004 -0.093091 0.0
0.067680 -0.100000 0.0
0.068651 -0.096546 0.0
0.064033 -0.096546 0.0
0.046164 -0.072570 0.0
0.050389 -0.079428 0.0
0.052330 -0.072519 0.0
0.048276 -0.075999 0.0
0.051359 -0.075973 0.0
0.049247 -0.072545 0.0
0.100000 -0.100000 0.0
0.100000 -0.091138 0.0
0.092707 -0.093091 0.0
0.100000 -0.095569 0.0
0.096353 -0.092114 0.0
0.096353 -0.096546 0.0
0.100000 -0.034904 0.0
0.100000 -0.028733 0.0
0.093810 -0.031413 0.0
0.100000 -0.031819 0.0
0.096905 -0.030073 0.0
0.096905 -0.033158 0.0
0.100000 0.012902 0.0
0.100000 0.018874 0.0
0.094687 0.015151 0.0
0.100000 0.015888 0.0
0.097344 0.017013 0.0
0.097344 0.014027 0.0
0.100000 0.065640 0.0
0.100000 0.074230 0.0
0.090980 0.074230 0.0
0.100000 0.069935 0.0
0.095490 0.074230 0.0
0.095490 0.069935 0.0
0.063919 0.100000 0.0
0.056290 0.100000 0.0
0.061894 0.092183 0.0
0.060104 0.100000 0.0
0.059092 0.096091 0.0
0.062906 0.096091 0.0
0.007836 0.100000 0.0
0.002396 0.100000 0.0
0.006013 0.094553 0.0
0.005116 0.100000 0.0
0.004205 0.097277 0.0
0.006925 0.097277 0.0
-0.037878 0.100000 0.0
-0.044970 0.100000 0.0
-0.040817 0.094604 0.0
-0.041424 0.100000 0.0
-0.042894 0.097302 0.0
-0.039347 0.097302 0.0
-0.066249 0.100000 0.0
-0.074686 0.100000 0.0
-0.068415 0.093567 0.0
-0.070467 0.100000 0.0
-0.071551 0.096783 0.0
-0.067332 0.096783 0.0
-0.049634 0.078415 0.0
-0.053788 0.083811 0.0
-0.055955 0.077378 0.0
-0.051711 0.081113 0.0
-0.054871 0.080594 0.0
-0.052794 0.077896 0.0
-0.100000 0.100000 0.0
-0.100000 0.090893 0.0
-0.093729 0.093567 0.0
-0.100000 0.095447 0.0
-0.096864 0.092230 0.0
-0.096864 0.096783 0.0
-0.100000 0.033352 0.0
-0.100000 0.027118 0.0
-0.095339 0.029743 0.0
-0.100000 0.030235 0.0
-0.097670 0.028430 0.0
-0.097670 0.031547 0.0
-0.100000 -0.015482 0.0
-0.100000 -0.021438 0.0
-0.095059 -0.017507 0.0
-0.100000 -0.018460 0.0
-0.097529 -0.019472 0.0
-0.097529 -0.016494 0.0
0.007560 -0.023829 0.0
0.005641 -0.024355 0.0
0.006997 -0.026159 0.0
0.006601 -0.024113 0.0
0.006319 -0.025257 0.0
0.007279 -0.024994 0.0
0.014593 -0.020299 0.0
0.012915 -0.021405 0.0
0.014868 -0.022539 0.0
0.013764 -0.020870 0.0
0.013892 -0.021972 0.0
0.014731 -0.021419 0.0
0.020068 -0.014909 0.0
0.018861 -0.016409 0.0
0.021005 -0.017131 0.0
0.019480 -0.015670 0.0
0.019933 -0.016770 0.0
0.020537 -0.016020 0.0
0.023733 -0.007859 0.0
0.023046 -0.009689 0.0
0.025196 -0.009671 0.0
0.023409 -0.008777 0.0
0.024121 -0.009680 0.0
0.024465 -0.008765 0.0
0.025000 0.000000 0.0
0.024926 -0.001917 0.0
0.027099 -0.001733 0.0
0.024982 -0.000952 0.0
0.026013 -0.001825 0.0
0.026050 -0.000866 0.0
0.023781 0.007712 0.0
0.024329 0.005755 0.0
0.025683 0.007104 0.0
0.024076 0.006734 0.0
0.025006 0.006429 0.0
0.024732 0.007408 0.0
0.020078 0.014895 0.0
0.021239 0.013188 0.0
0.022684 0.015103 0.0
0.020677 0.014052 0.0
0.021961 0.014145 0.0
0.021381 0.014999 0.0
0.014575 0.020312 0.0
0.016102 0.019124 0.0
0.016822 0.021296 0.0
0.015349 0.019733 0.0
0.016462 0.020210 0.0
0.015699 0.020804 0.0
0.007496 0.023850 0.0
0.009327 0.023195 0.0
0.009460 0.025453 0.0
0.008414 0.023542 0.0
0.009394 0.024324 0.0
0.008478 0.024652 0.0
0.000000 0.025000 0.0
0.001828 0.024933 0.0
0.001277 0.027091 0.0
0.000908 0.024983 0.0
0.001553 0.026012 0.0
0.000639 0.026046 0.0
-0.008011 0.023682 0.0
-0.005979 0.024274 0.0
-0.007284 0.026059 0.0
-0.006996 0.024001 0.0
-0.006632 0.025167 0.0
-0.007648 0.024870 0.0
-0.014775 0.020167 0.0
-0.013163 0.021254 0.0
-0.014838 0.022514 0.0
-0.013978 0.020727 0.0
-0.014000 0.021884 0.0
-0.014806 0.021341 0.0
-0.020167 0.014774 0.0
-0.018980 0.016271 0.0
-0.021179 0.016930 0.0
-0.019589 0.015533 0.0
-0.020080 0.016601 0.0
-0.020673 0.015852 0.0
-0.023718 0.007903 0.0
-0.023048 0.009684 0.0
-0.025240 0.009754 0.0
-0.023401 0.008796 0.0
-0.024144 0.009719 0.0
-0.024479 0.008829 0.0
-0.025000 0.000000 0.0
-0.024926 0.001928 0.0
-0.027047 0.001281 0.0
-0.024982 0.000957 0.0
-0.025986 0.001604 0.0
-0.026024 0.000640 0.0
-0.023696 -0.007970 0.0
-0.024282 -0.005948 0.0
-0.026065 -0.007317 0.0
-0.024012 -0.006960 0.0
-0.025174 -0.006633 0.0
-0.024880 -0.007643 0.0
-0.020179 -0.014758 0.0
-0.021268 -0.013140 0.0
-0.022648 -0.014887 0.0
-0.020741 -0.013958 0.0
-0.021958 -0.014013 0.0
-0.021414 -0.014822 0.0
-0.014770 -0.020170 0.0
-0.016272 -0.018979 0.0
-0.017076 -0.021145 0.0
-0.015532 -0.019590 0.0
-0.016674 -0.020062 0.0
-0.015923 -0.020658 0.0
-0.008002 -0.023685 0.0
-0.009757 -0.023018 0.0
-0.009584 -0.025194 0.0
-0.008882 -0.023369 0.0
-0.009670 -0.024106 0.0
-0.008793 -0.024439 0.0
0.000000 -0.025000 0.0
-0.001952 -0.024924 0.0
-0.001123 -0.027688 0.0
-0.000969 -0.024981 0.0
-0.001538 -0.026306 0.0
-0.000562 -0.026344 0.0
0.100000 0.065640 0.0
0.090980 0.074230 0.0
0.088955 0.066413 0.0
0.095490 0.069935 0.0
0.089967 0.070322 0.0
0.094477 0.066027 0.0
-0.048270 -0.079882 0.0
-0.045936 -0.084912 0.0
-0.041973 -0.079662 0.0
-0.047103 -0.082397 0.0
-0.043954 -0.082287 0.0
-0.045121 -0.079772 0.0
-0.038936 -0.100000 0.0
-0.032971 -0.100000 0.0
-0.034972 -0.094751 0.0
-0.035954 -0.100000 0.0
-0.033972 -0.097375 0.0
-0.036954 -0.097375 0.0
-0.015076 -0.100000 0.0
-0.011950 -0.094789 0.0
-0.017077 -0.094751 0.0
-0.013513 -0.097394 0.0
-0.014514 -0.094770 0.0
-0.016076 -0.097375 0.0
0.008627 -0.100000 0.0
0.014805 -0.100000 0.0
0.011033 -0.094980 0.0
0.011716 -0.100000 0.0
0.012919 -0.097490 0.0
0.009830 -0.097490 0.0
0.100000 -0.064552 0.0
0.100000 -0.057140 0.0
0.091208 -0.059314 0.0
0.100000 -0.060846 0.0
0.095604 -0.058227 0.0
0.095604 -0.061933 0.0
0.100000 -0.010222 0.0
0.100000 -0.004441 0.0
0.095040 -0.007429 0.0
0.100000 -0.007332 0.0
0.097520 -0.005935 0.0
0.097520 -0.008826 0.0
0.075242 -0.020942 0.0
0.081431 -0.018262 0.0
0.076471 -0.015468 0.0
0.078336 -0.019602 0.0
0.078951 -0.016865 0.0
0.075856 -0.018205 0.0
0.100000 0.012902 0.0
0.094687 0.015151 0.0
0.095040 0.009915 0.0
0.097344 0.014027 0.0
0.094863 0.012533 0.0
0.097520 0.011409 0.0
0.008627 -0.100000 0.0
0.011033 -0.094980 0.0
0.005827 -0.094789 0.0
0.009830 -0.097490 0.0
0.008430 -0.094885 0.0
0.007227 -0.097394 0.0
0.100000 0.036789 0.0
0.100000 0.044002 0.0
0.093835 0.039703 0.0
0.100000 0.040396 0.0
0.096918 0.041852 0.0
0.096918 0.038246 0.0
0.055819 0.068731 0.0
0.050216 0.076549 0.0
0.047767 0.070108 0.0
0.053017 0.072640 0.0
0.048991 0.073328 0.0
0.051793 0.069420 0.0
0.033405 0.100000 0.0
0.027013 0.100000 0.0
0.030957 0.093560 0.0
0.030209 0.100000 0.0
0.028985 0.096780 0.0
0.032181 0.096780 0.0
0.007836 0.100000 0.0
0.006013 0.094553 0.0
0.011780 0.093560 0.0
0.006925 0.097277 0.0
0.008897 0.094056 0.0
0.009808 0.096780 0.0
-0.013924 0.100000 0.0
-0.019912 0.100000 0.0
-0.016383 0.095369 0.0
-0.016918 0.100000 0.0
-0.018148 0.097684 0.0
-0.015153 0.097684 0.0
-0.080235 -0.023581 0.0
-0.085176 -0.027512 0.0
-0.079721 -0.029870 0.0
-0.082706 -0.025547 0.0
-0.082449 -0.028691 0.0
-0.079978 -0.026726 0.0
-0.100000 -0.039306 0.0
-0.100000 -0.046159 0.0
-0.094545 -0.041664 0.0
-0.100000 -0.042733 0.0
-0.097272 -0.043912 0.0
-0.097272 -0.040485 0.0
-0.100000 0.063572 0.0
-0.100000 0.056017 0.0
-0.095001 0.059021 0.0
-0.100000 0.059795 0.0
-0.097500 0.057519 0.0
-0.097500 0.061297 0.0
-0.100000 0.008418 0.0
-0.100000 0.002443 0.0
-0.095551 0.005687 0.0
-0.100000 0.005430 0.0
-0.097776 0.004065 0.0
-0.097776 0.007052 0.0
0.007560 -0.023829 0.0
0.006997 -0.026159 0.0
0.009593 -0.025187 0.0
0.007279 -0.024994 0.0
0.008295 -0.025673 0.0
0.008577 -0.024508 0.0
-0.100000 0.063572 0.0
-0.095001 0.059021 0.0
-0.093729 0.066246 0.0
-0.097500 0.061297 0.0
-0.094365 0.062633 0.0
-0.096864 0.064909 0.0
0.014593 -0.020299 0.0
0.014868 -0.022539 0.0
0.016899 -0.021173 0.0
0.014731 -0.021419 0.0
0.015884 -0.021856 0.0
0.015746 -0.020736 0.0
0.020068 -0.014909 0.0
0.021005 -0.017131 0.0
0.022448 -0.014959 0.0
0.020537 -0.016020 0.0
0.021727 -0.016045 0.0
0.021258 -0.014934 0.0
0.023733 -0.007859 0.0
0.025196 -0.009671 0.0
0.026149 -0.007627 0.0
0.024465 -0.008765 0.0
0.025673 -0.008649 0.0
0.024941 -0.007743 0.0
0.025000 0.000000 0.0
0.027099 -0.001733 0.0
0.026598 0.001320 0.0
0.026050 -0.000866 0.0
0.026849 -0.000207 0.0
0.025799 0.000660 0.0
0.023781 0.007712 0.0
0.025683 0.007104 0.0
0.025461 0.009715 0.0
0.024732 0.007408 0.0
0.025572 0.008410 0.0
0.024621 0.008714 0.0
0.020078 0.014895 0.0
0.022684 0.015103 0.0
0.020949 0.017234 0.0
0.021381 0.014999 0.0
0.021816 0.016168 0.0
0.020513 0.016065 0.0
0.014575 0.020312 0.0
0.016822 0.021296 0.0
0.014770 0.022800 0.0
0.015699 0.020804 0.0
0.015796 0.022048 0.0
0.014673 0.021556 0.0
0.007496 0.023850 0.0
0.009460 0.025453 0.0
0.006899 0.026228 0.0
0.008478 0.024652 0.0
0.008180 0.025841 0.0
0.007198 0.025039 0.0
0.000000 0.025000 0.0
0.001277 0.027091 0.0
-0.001276 0.027048 0.0
0.000639 0.026046 0.0
0.000001 0.027069 0.0
-0.000638 0.026024 0.0
-0.008011 0.023682 0.0
-0.007284 0.026059 0.0
-0.009765 0.025150 0.0
-0.007648 0.024870 0.0
-0.008524 0.025605 0.0
-0.008888 0.024416 0.0
-0.014775 0.020167 0.0
-0.014838 0.022514 0.0
-0.017135 0.020974 0.0
-0.014806 0.021341 0.0
-0.015986 0.021744 0.0
-0.015955 0.020571 0.0
-0.020167 0.014774 0.0
-0.021179 0.016930 0.0
-0.022577 0.014908 0.0
-0.020673 0.015852 0.0
-0.021878 0.015919 0.0
-0.021372 0.014841 0.0
-0.023718 0.007903 0.0
-0.025240 0.009754 0.0
-0.026086 0.007208 0.0
-0.024479 0.008829 0.0
-0.025663 0.008481 0.0
[...]
POINT_DATA 23232
Scalars Nodes_ID float 1
Lookup_table default
2.000000
630.000000
581.000000
2226.000000
2225.000000
2177.000000
2.000000
534.000000
632.000000
2034.000000
2227.000000
2228.000000
4.000000
536.000000
634.000000
2036.000000
2229.000000
2230.000000
6.000000
538.000000
636.000000
2038.000000
2231.000000
2232.000000
7.000000
539.000000
638.000000
2039.000000
2233.000000
2234.000000
51.000000
641.000000
640.000000
2237.000000
2235.000000
2236.000000
8.000000
540.000000
643.000000
2040.000000
2238.000000
2239.000000
10.000000
542.000000
645.000000
2042.000000
2240.000000
2241.000000
12.000000
544.000000
647.000000
2044.000000
2242.000000
2243.000000
14.000000
546.000000
649.000000
2046.000000
2244.000000
2245.000000
16.000000
548.000000
651.000000
2048.000000
2246.000000
2247.000000
18.000000
550.000000
653.000000
2050.000000
2248.000000
2249.000000
20.000000
552.000000
655.000000
2052.000000
2250.000000
2251.000000
21.000000
553.000000
657.000000
2053.000000
2252.000000
2253.000000
57.000000
660.000000
659.000000
2256.000000
2254.000000
2255.000000
22.000000
554.000000
662.000000
2054.000000
2257.000000
2258.000000
24.000000
556.000000
664.000000
2056.000000
2259.000000
2260.000000
26.000000
558.000000
666.000000
2058.000000
2261.000000
2262.000000
30.000000
609.000000
668.000000
2205.000000
2263.000000
2264.000000
31.000000
610.000000
670.000000
2206.000000
2265.000000
2266.000000
32.000000
611.000000
672.000000
2207.000000
2267.000000
2268.000000
33.000000
612.000000
674.000000
2208.000000
2269.000000
2270.000000
34.000000
613.000000
676.000000
2209.000000
2271.000000
2272.000000
35.000000
614.000000
678.000000
2210.000000
2273.000000
2274.000000
36.000000
615.000000
680.000000
2211.000000
2275.000000
2276.000000
37.000000
616.000000
682.000000
2212.000000
2277.000000
2278.000000
38.000000
617.000000
684.000000
2213.000000
2279.000000
2280.000000
39.000000
618.000000
686.000000
2214.000000
2281.000000
2282.000000
40.000000
619.000000
688.000000
2215.000000
2283.000000
2284.000000
41.000000
620.000000
690.000000
2216.000000
2285.000000
2286.000000
42.000000
621.000000
692.000000
2217.000000
2287.000000
2288.000000
43.000000
622.000000
694.000000
2218.000000
2289.000000
2290.000000
44.000000
623.000000
696.000000
2219.000000
2291.000000
2292.000000
45.000000
624.000000
698.000000
2220.000000
2293.000000
2294.000000
46.000000
625.000000
700.000000
2221.000000
2295.000000
2296.000000
47.000000
626.000000
702.000000
2222.000000
2297.000000
2298.000000
48.000000
627.000000
704.000000
2223.000000
2299.000000
2300.000000
29.000000
628.000000
706.000000
2224.000000
2301.000000
2302.000000
14.000000
649.000000
708.000000
2245.000000
2303.000000
2304.000000
49.000000
711.000000
710.000000
2307.000000
2305.000000
2306.000000
3.000000
535.000000
713.000000
2035.000000
2308.000000
2309.000000
4.000000
634.000000
715.000000
2230.000000
2310.000000
2311.000000
5.000000
537.000000
717.000000
2037.000000
2312.000000
2313.000000
9.000000
541.000000
719.000000
2041.000000
2314.000000
2315.000000
11.000000
543.000000
721.000000
2043.000000
2316.000000
2317.000000
53.000000
724.000000
723.000000
2320.000000
2318.000000
2319.000000
12.000000
647.000000
726.000000
2243.000000
2321.000000
2322.000000
5.000000
717.000000
728.000000
2313.000000
2323.000000
2324.000000
13.000000
545.000000
730.000000
2045.000000
2325.000000
2326.000000
55.000000
733.000000
732.000000
2329.000000
2327.000000
2328.000000
17.000000
549.000000
735.000000
2049.000000
2330.000000
2331.000000
18.000000
653.000000
737.000000
2249.000000
2332.000000
2333.000000
19.000000
551.000000
739.000000
2051.000000
2334.000000
2335.000000
60.000000
742.000000
741.000000
2338.000000
2336.000000
2337.000000
27.000000
559.000000
744.000000
2059.000000
2339.000000
2340.000000
23.000000
555.000000
746.000000
2055.000000
2341.000000
2342.000000
25.000000
557.000000
748.000000
2057.000000
2343.000000
2344.000000
30.000000
668.000000
750.000000
2264.000000
2345.000000
2346.000000
23.000000
746.000000
752.000000
2342.000000
2347.000000
2348.000000
31.000000
670.000000
754.000000
2266.000000
2349.000000
2350.000000
32.000000
672.000000
756.000000
2268.000000
2351.000000
2352.000000
33.000000
674.000000
758.000000
2270.000000
2353.000000
2354.000000
34.000000
676.000000
760.000000
2272.000000
2355.000000
2356.000000
35.000000
678.000000
762.000000
2274.000000
2357.000000
2358.000000
36.000000
680.000000
764.000000
2276.000000
2359.000000
2360.000000
37.000000
682.000000
766.000000
2278.000000
2361.000000
2362.000000
38.000000
684.000000
768.000000
2280.000000
2363.000000
2364.000000
39.000000
686.000000
770.000000
2282.000000
2365.000000
2366.000000
40.000000
688.000000
772.000000
2284.000000
2367.000000
2368.000000
41.000000
690.000000
774.000000
2286.000000
2369.000000
2370.000000
42.000000
692.000000
776.000000
2288.000000
2371.000000
2372.000000
43.000000
694.000000
778.000000
2290.000000
2373.000000
2374.000000
44.000000
696.000000
780.000000
2292.000000
2375.000000
2376.000000
45.000000
698.000000
782.000000
2294.000000
2377.000000
2378.000000
46.000000
700.000000
784.000000
2296.000000
2379.000000
2380.000000
47.000000
702.000000
786.000000
2298.000000
2381.000000
2382.000000
48.000000
704.000000
788.000000
2300.000000
2383.000000
2384.000000
29.000000
706.000000
790.000000
2302.000000
2385.000000
2386.000000
28.000000
560.000000
792.000000
2060.000000
2387.000000
2388.000000
13.000000
730.000000
794.000000
2326.000000
2389.000000
2390.000000
19.000000
739.000000
796.000000
2335.000000
2391.000000
2392.000000
52.000000
799.000000
798.000000
2395.000000
2393.000000
2394.000000
59.000000
802.000000
801.000000
2398.000000
2396.000000
2397.000000
83.000000
805.000000
804.000000
2401.000000
2399.000000
2400.000000
82.000000
808.000000
807.000000
2404.000000
2402.000000
2403.000000
90.000000
811.000000
810.000000
2407.000000
2405.000000
2406.000000
87.000000
814.000000
813.000000
2410.000000
2408.000000
2409.000000
89.000000
817.000000
816.000000
2413.000000
2411.000000
2412.000000
81.000000
820.000000
819.000000
2416.000000
2414.000000
2415.000000
90.000000
810.000000
822.000000
2406.000000
2417.000000
2418.000000
59.000000
801.000000
824.000000
2397.000000
2419.000000
2420.000000
90.000000
822.000000
826.000000
2418.000000
2421.000000
2422.000000
51.000000
640.000000
828.000000
2236.000000
2423.000000
2424.000000
56.000000
831.000000
830.000000
2427.000000
2425.000000
2426.000000
82.000000
807.000000
833.000000
2403.000000
2428.000000
2429.000000
50.000000
836.000000
835.000000
2432.000000
2430.000000
2431.000000
92.000000
839.000000
838.000000
2435.000000
2433.000000
2434.000000
82.000000
833.000000
841.000000
2429.000000
2436.000000
2437.000000
55.000000
732.000000
843.000000
2328.000000
2438.000000
2439.000000
49.000000
710.000000
845.000000
2306.000000
2440.000000
2441.000000
86.000000
848.000000
847.000000
2444.000000
2442.000000
2443.000000
100.000000
851.000000
850.000000
2447.000000
2445.000000
2446.000000
95.000000
854.000000
853.000000
2450.000000
2448.000000
2449.000000
89.000000
816.000000
856.000000
2412.000000
2451.000000
2452.000000
59.000000
824.000000
858.000000
2420.000000
2453.000000
2454.000000
57.000000
659.000000
860.000000
2255.000000
2455.000000
2456.000000
58.000000
863.000000
862.000000
2459.000000
2457.000000
2458.000000
83.000000
804.000000
865.000000
2400.000000
2460.000000
2461.000000
87.000000
813.000000
867.000000
2409.000000
2462.000000
2463.000000
95.000000
870.000000
869.000000
2466.000000
2464.000000
2465.000000
57.000000
860.000000
872.000000
2456.000000
2467.000000
2468.000000
62.000000
875.000000
874.000000
2471.000000
2469.000000
2470.000000
54.000000
878.000000
877.000000
2474.000000
2472.000000
2473.000000
63.000000
881.000000
880.000000
2477.000000
2475.000000
2476.000000
64.000000
884.000000
883.000000
2480.000000
2478.000000
2479.000000
65.000000
887.000000
886.000000
2483.000000
2481.000000
2482.000000
66.000000
890.000000
889.000000
2486.000000
2484.000000
2485.000000
67.000000
893.000000
892.000000
2489.000000
2487.000000
2488.000000
68.000000
896.000000
895.000000
2492.000000
2490.000000
2491.000000
69.000000
899.000000
898.000000
2495.000000
2493.000000
2494.000000
70.000000
902.000000
901.000000
2498.000000
2496.000000
2497.000000
71.000000
905.000000
904.000000
2501.000000
2499.000000
2500.000000
72.000000
908.000000
907.000000
2504.000000
2502.000000
2503.000000
73.000000
911.000000
910.000000
2507.000000
2505.000000
2506.000000
74.000000
914.000000
913.000000
2510.000000
2508.000000
2509.000000
75.000000
917.000000
916.000000
2513.000000
2511.000000
2512.000000
76.000000
920.000000
919.000000
2516.000000
2514.000000
2515.000000
77.000000
923.000000
922.000000
2519.000000
2517.000000
2518.000000
78.000000
926.000000
925.000000
2522.000000
2520.000000
2521.000000
79.000000
929.000000
928.000000
2525.000000
2523.000000
2524.000000
80.000000
932.000000
931.000000
2528.000000
2526.000000
2527.000000
61.000000
935.000000
934.000000
2531.000000
2529.000000
2530.000000
51.000000
828.000000
937.000000
2424.000000
2532.000000
2533.000000
62.000000
874.000000
939.000000
2470.000000
2534.000000
2535.000000
105.000000
942.000000
941.000000
2538.000000
2536.000000
2537.000000
55.000000
843.000000
944.000000
2439.000000
2539.000000
2540.000000
99.000000
947.000000
946.000000
2543.000000
2541.000000
2542.000000
85.000000
950.000000
949.000000
2546.000000
2544.000000
2545.000000
88.000000
953.000000
952.000000
2549.000000
2547.000000
2548.000000
93.000000
956.000000
955.000000
2552.000000
2550.000000
2551.000000
102.000000
959.000000
958.000000
2555.000000
2553.000000
2554.000000
60.000000
741.000000
961.000000
2337.000000
2556.000000
2557.000000
85.000000
949.000000
963.000000
2545.000000
2558.000000
2559.000000
88.000000
952.000000
965.000000
2548.000000
2560.000000
2561.000000
2.000000
632.000000
630.000000
2228.000000
2562.000000
2226.000000
126.000000
969.000000
968.000000
2565.000000
2563.000000
2564.000000
125.000000
972.000000
971.000000
2568.000000
2566.000000
2567.000000
80.000000
931.000000
974.000000
2527.000000
2569.000000
2570.000000
124.000000
977.000000
976.000000
2573.000000
2571.000000
2572.000000
123.000000
980.000000
979.000000
2576.000000
2574.000000
2575.000000
122.000000
983.000000
982.000000
2579.000000
2577.000000
2578.000000
121.000000
986.000000
985.000000
2582.000000
2580.000000
2581.000000
120.000000
989.000000
988.000000
2585.000000
2583.000000
2584.000000
119.000000
992.000000
991.000000
2588.000000
2586.000000
2587.000000
118.000000
995.000000
994.000000
2591.000000
2589.000000
2590.000000
117.000000
998.000000
997.000000
2594.000000
2592.000000
2593.000000
116.000000
1001.000000
1000.000000
2597.000000
2595.000000
2596.000000
115.000000
1004.000000
1003.000000
2600.000000
2598.000000
2599.000000
114.000000
1007.000000
1006.000000
2603.000000
2601.000000
2602.000000
113.000000
1010.000000
1009.000000
2606.000000
2604.000000
2605.000000
112.000000
1013.000000
1012.000000
2609.000000
2607.000000
2608.000000
67.000000
892.000000
1015.000000
2488.000000
2610.000000
2611.000000
111.000000
1018.000000
1017.000000
2614.000000
2612.000000
2613.000000
63.000000
880.000000
1020.000000
2476.000000
2615.000000
2616.000000
110.000000
1023.000000
1022.000000
2619.000000
2617.000000
2618.000000
65.000000
886.000000
1025.000000
2482.000000
2620.000000
2621.000000
109.000000
1028.000000
1027.000000
2624.000000
2622.000000
2623.000000
91.000000
1031.000000
1030.000000
2627.000000
2625.000000
2626.000000
91.000000
1030.000000
1033.000000
2626.000000
2628.000000
2629.000000
107.000000
1036.000000
1035.000000
2632.000000
2630.000000
2631.000000
96.000000
1039.000000
1038.000000
2635.000000
2633.000000
2634.000000
106.000000
1042.000000
1041.000000
2638.000000
2636.000000
2637.000000
53.000000
723.000000
1044.000000
2319.000000
2639.000000
2640.000000
99.000000
1047.000000
1046.000000
2643.000000
2641.000000
2642.000000
103.000000
1050.000000
1049.000000
2646.000000
2644.000000
2645.000000
54.000000
877.000000
1052.000000
2473.000000
2647.000000
2648.000000
126.000000
968.000000
1054.000000
2564.000000
2649.000000
2650.000000
132.000000
1057.000000
1056.000000
2653.000000
2651.000000
2652.000000
111.000000
1017.000000
1059.000000
2613.000000
2654.000000
2655.000000
115.000000
1003.000000
1061.000000
2599.000000
2656.000000
2657.000000
117.000000
997.000000
1063.000000
2593.000000
2658.000000
2659.000000
118.000000
994.000000
1065.000000
2590.000000
2660.000000
2661.000000
119.000000
991.000000
1067.000000
2587.000000
2662.000000
2663.000000
120.000000
988.000000
1069.000000
2584.000000
2664.000000
2665.000000
119.000000
1067.000000
1071.000000
2663.000000
2666.000000
2667.000000
121.000000
985.000000
1073.000000
2581.000000
2668.000000
2669.000000
84.000000
1076.000000
1075.000000
2672.000000
2670.000000
2671.000000
96.000000
1038.000000
1078.000000
2634.000000
2673.000000
2674.000000
103.000000
1049.000000
1080.000000
2645.000000
2675.000000
2676.000000
112.000000
1083.000000
1082.000000
2679.000000
2677.000000
2678.000000
92.000000
838.000000
1085.000000
2434.000000
2680.000000
2681.000000
94.000000
1088.000000
1087.000000
2684.000000
2682.000000
2683.000000
102.000000
958.000000
1090.000000
2554.000000
2685.000000
2686.000000
104.000000
1093.000000
1092.000000
2689.000000
2687.000000
2688.000000
101.000000
1096.000000
1095.000000
2692.000000
2690.000000
2691.000000
126.000000
1054.000000
1098.000000
2650.000000
2693.000000
2694.000000
128.000000
1101.000000
1100.000000
2697.000000
2695.000000
2696.000000
92.000000
1085.000000
1103.000000
2681.000000
2698.000000
2699.000000
124.000000
976.000000
1105.000000
2572.000000
2700.000000
2701.000000
137.000000
1108.000000
1107.000000
2704.000000
2702.000000
2703.000000
136.000000
1111.000000
1110.000000
2707.000000
2705.000000
2706.000000
135.000000
1114.000000
1113.000000
2710.000000
2708.000000
2709.000000
129.000000
1117.000000
1116.000000
2713.000000
2711.000000
2712.000000
134.000000
1120.000000
1119.000000
2716.000000
2714.000000
2715.000000
97.000000
1123.000000
1122.000000
2719.000000
2717.000000
2718.000000
114.000000
1006.000000
1125.000000
2602.000000
2720.000000
2721.000000
116.000000
1000.000000
1127.000000
2596.000000
2722.000000
2723.000000
121.000000
1073.000000
1129.000000
2669.000000
2724.000000
2725.000000
139.000000
1132.000000
1131.000000
2728.000000
2726.000000
2727.000000
122.000000
982.000000
1134.000000
2578.000000
2729.000000
2730.000000
101.000000
1095.000000
1136.000000
2691.000000
2731.000000
2732.000000
126.000000
1098.000000
1138.000000
2694.000000
2733.000000
2734.000000
97.000000
1140.000000
1123.000000
2736.000000
2735.000000
2719.000000
105.000000
941.000000
1142.000000
2537.000000
2737.000000
2738.000000
99.000000
946.000000
1144.000000
2542.000000
2739.000000
2740.000000
127.000000
1147.000000
1146.000000
2743.000000
2741.000000
2742.000000
113.000000
1150.000000
1149.000000
2746.000000
2744.000000
2745.000000
104.000000
1092.000000
1152.000000
2688.000000
2747.000000
2748.000000
137.000000
1155.000000
1154.000000
2751.000000
2749.000000
2750.000000
95.000000
869.000000
1157.000000
2465.000000
2752.000000
2753.000000
140.000000
1160.000000
1159.000000
2756.000000
2754.000000
2755.000000
127.000000
1146.000000
1162.000000
2742.000000
2757.000000
2758.000000
144.000000
1165.000000
1164.000000
2761.000000
2759.000000
2760.000000
95.000000
1157.000000
1167.000000
2753.000000
2762.000000
2763.000000
97.000000
1122.000000
1169.000000
2718.000000
2764.000000
2765.000000
133.000000
1172.000000
1171.000000
2768.000000
2766.000000
2767.000000
138.000000
1175.000000
1174.000000
2771.000000
2769.000000
2770.000000
120.000000
1069.000000
1177.000000
2665.000000
2772.000000
2773.000000
133.000000
1180.000000
1179.000000
2776.000000
2774.000000
2775.000000
100.000000
1182.000000
851.000000
2778.000000
2777.000000
2447.000000
108.000000
1185.000000
1184.000000
2781.000000
2779.000000
2780.000000
99.000000
1144.000000
1047.000000
2740.000000
2782.000000
2643.000000
109.000000
1189.000000
1188.000000
2785.000000
2783.000000
2784.000000
115.000000
1061.000000
1191.000000
2657.000000
2786.000000
2787.000000
141.000000
1194.000000
1193.000000
2790.000000
2788.000000
2789.000000
133.000000
1179.000000
1172.000000
2775.000000
2791.000000
2768.000000
95.000000
1167.000000
854.000000
2763.000000
2792.000000
2450.000000
106.000000
1041.000000
1198.000000
2637.000000
2793.000000
2794.000000
130.000000
1201.000000
1200.000000
2797.000000
2795.000000
2796.000000
122.000000
1204.000000
1203.000000
2800.000000
2798.000000
2799.000000
98.000000
1207.000000
1206.000000
2803.000000
2801.000000
2802.000000
100.000000
1210.000000
1209.000000
2806.000000
2804.000000
2805.000000
91.000000
1213.000000
1212.000000
2809.000000
2807.000000
2808.000000
1.000000
533.000000
1215.000000
2033.000000
2810.000000
2811.000000
195.000000
1211.000000
629.000000
2814.000000
2812.000000
2813.000000
3.000000
1217.000000
582.000000
2816.000000
2815.000000
2178.000000
49.000000
1219.000000
711.000000
2818.000000
2817.000000
2307.000000
147.000000
1216.000000
631.000000
2821.000000
2819.000000
2820.000000
5.000000
728.000000
584.000000
2324.000000
2822.000000
2180.000000
50.000000
1223.000000
1222.000000
2825.000000
2823.000000
2824.000000
149.000000
1220.000000
633.000000
2828.000000
2826.000000
2827.000000
7.000000
1225.000000
586.000000
2830.000000
2829.000000
2182.000000
51.000000
1227.000000
641.000000
2832.000000
2831.000000
2237.000000
151.000000
1224.000000
635.000000
2835.000000
2833.000000
2834.000000
8.000000
643.000000
587.000000
2239.000000
2836.000000
2183.000000
52.000000
1231.000000
1230.000000
2839.000000
2837.000000
2838.000000
152.000000
1228.000000
637.000000
2842.000000
2840.000000
2841.000000
7.000000
638.000000
1225.000000
2234.000000
2843.000000
2830.000000
52.000000
1234.000000
1231.000000
2845.000000
2844.000000
2839.000000
200.000000
1232.000000
639.000000
2848.000000
2846.000000
2847.000000
9.000000
1236.000000
588.000000
2850.000000
2849.000000
2184.000000
52.000000
1230.000000
799.000000
2838.000000
2851.000000
2395.000000
153.000000
1235.000000
642.000000
2854.000000
2852.000000
2853.000000
11.000000
1239.000000
590.000000
2856.000000
2855.000000
2186.000000
53.000000
1241.000000
724.000000
2858.000000
2857.000000
2320.000000
155.000000
1238.000000
644.000000
2861.000000
2859.000000
2860.000000
13.000000
794.000000
592.000000
2390.000000
2862.000000
2188.000000
54.000000
1245.000000
1244.000000
2865.000000
2863.000000
2864.000000
157.000000
1242.000000
646.000000
2868.000000
2866.000000
2867.000000
15.000000
547.000000
594.000000
2047.000000
2869.000000
2190.000000
16.000000
1248.000000
595.000000
2871.000000
2870.000000
2191.000000
159.000000
1246.000000
648.000000
2874.000000
2872.000000
2873.000000
17.000000
1250.000000
596.000000
2876.000000
2875.000000
2192.000000
55.000000
1252.000000
733.000000
2878.000000
2877.000000
2329.000000
161.000000
1249.000000
650.000000
2881.000000
2879.000000
2880.000000
19.000000
796.000000
598.000000
2392.000000
2882.000000
2194.000000
56.000000
1256.000000
1255.000000
2885.000000
2883.000000
2884.000000
163.000000
1253.000000
652.000000
2888.000000
2886.000000
2887.000000
21.000000
1258.000000
600.000000
2890.000000
2889.000000
2196.000000
57.000000
1260.000000
660.000000
2892.000000
2891.000000
2256.000000
165.000000
1257.000000
654.000000
2895.000000
2893.000000
2894.000000
22.000000
662.000000
601.000000
2258.000000
2896.000000
2197.000000
58.000000
1264.000000
1263.000000
2899.000000
2897.000000
2898.000000
166.000000
1261.000000
656.000000
2902.000000
2900.000000
2901.000000
21.000000
657.000000
1258.000000
2253.000000
2903.000000
2890.000000
58.000000
1267.000000
1264.000000
2905.000000
2904.000000
2899.000000
215.000000
1265.000000
658.000000
2908.000000
2906.000000
2907.000000
23.000000
752.000000
602.000000
2348.000000
2909.000000
2198.000000
58.000000
1263.000000
1270.000000
2898.000000
2910.000000
2911.000000
167.000000