 TITLE ="GEORGIA TECH TEST PIT GRID                                                      "
 VARIABLES = "R","Z","DISP_R","DISP_Z","EPSR","EPSTH","EPSZ","EPSRZ","SIGMAR","SIGMATH","SIGMAZ","SIGMARZ"
 ZONE T="GEOMETRY & DISP", N=  475, E=  140, F=FEPOINT, ET=QUADRILATERAL
  0.00000000  0.00000000  0.00000000  0.00000000     0.0000000     0.0000000    -0.0001600     0.0000000    -3.4283216    -3.4283216    -5.1424821     0.0000000
  0.69999999  0.00000000  0.00000000  0.00000000     0.0000000     0.0000000    -0.0001600     0.0000019    -3.4285920    -3.4285920    -5.1428877     0.0101984
  1.39999998  0.00000000  0.00000000  0.00000000     0.0000000     0.0000000    -0.0001600     0.0000038    -3.4275813    -3.4275813    -5.1413717     0.0203794
  2.97499990  0.00000000  0.00000000  0.00000000     0.0000000     0.0000000    -0.0001599     0.0000081    -3.4268061    -3.4268061    -5.1402088     0.0431716
  4.55000019  0.00000000  0.00000000  0.00000000     0.0000000     0.0000000    -0.0001596     0.0000122    -3.4196984    -3.4196984    -5.1295473     0.0656038
  7.05000019  0.00000000  0.00000000  0.00000000     0.0000000     0.0000000    -0.0001592     0.0000187    -3.4115327    -3.4115327    -5.1172987     0.1001661
  9.55000019  0.00000000  0.00000000  0.00000000     0.0000000     0.0000000    -0.0001582     0.0000248    -3.3893389    -3.3893389    -5.0840080     0.1327429
 13.55000019  0.00000000  0.00000000  0.00000000     0.0000000     0.0000000    -0.0001569     0.0000335    -3.3629641    -3.3629641    -5.0444459     0.1792201
 17.54999924  0.00000000  0.00000000  0.00000000     0.0000000     0.0000000    -0.0001546     0.0000406    -3.3136514    -3.3136514    -4.9704767     0.2176223
 25.04999924  0.00000000  0.00000000  0.00000000     0.0000000     0.0000000    -0.0001493     0.0000487    -3.2002024    -3.2002024    -4.8003034     0.2606459
 32.54999924  0.00000000  0.00000000  0.00000000     0.0000000     0.0000000    -0.0001447     0.0000512    -3.1012572    -3.1012572    -4.6518855     0.2745351
 42.54999924  0.00000000  0.00000000  0.00000000     0.0000000     0.0000000    -0.0001362     0.0000449    -2.9183531    -2.9183531    -4.3775294     0.2405411
 52.54999924  0.00000000  0.00000000  0.00000000     0.0000000     0.0000000    -0.0001324     0.0000344    -2.8365984    -2.8365984    -4.2548974     0.1841166
 65.05000305  0.00000000  0.00000000  0.00000000     0.0000000     0.0000000    -0.0001275     0.0000170    -2.7312627    -2.7312627    -4.0968938     0.0908738
 77.55000305  0.00000000  0.00000000  0.00000000     0.0000000     0.0000000    -0.0001268     0.0000000    -2.7177139    -2.7177139    -4.0765706     0.0000000
  0.00000000 10.00000000  0.00000000 -0.00171254     0.0000249     0.0000249    -0.0001825    -0.0000002    -2.5748277    -2.5748277    -4.7976621    -0.0010831
  1.39999998 10.00000000  0.00003486 -0.00171163     0.0000249     0.0000249    -0.0001824     0.0000044    -2.5743583    -2.5742902    -4.7950395     0.0234883
  4.55000019 10.00000000  0.00011205 -0.00170279     0.0000241     0.0000246    -0.0001810     0.0000144    -2.5742511    -2.5690800    -4.7719262     0.0771707
  9.55000019 10.00000000  0.00022568 -0.00167069     0.0000213     0.0000236    -0.0001760     0.0000288    -2.5809876    -2.5555962    -4.6941696     0.1545429
 17.54999924 10.00000000  0.00036576 -0.00158574     0.0000133     0.0000208    -0.0001625     0.0000462    -2.6092115    -2.5280956    -4.4925755     0.2474416
 32.54999924 10.00000000  0.00044897 -0.00138893    -0.0000026     0.0000138    -0.0001331     0.0000517    -2.6394502    -2.4637649    -4.0372110     0.2769779
 52.54999924 10.00000000  0.00029515 -0.00120151    -0.0000120     0.0000056    -0.0001079     0.0000301    -2.5786923    -2.3897399    -3.6062799     0.1611893
 77.55000305 10.00000000  0.00000000 -0.00113212    -0.0000115     0.0000000    -0.0000996    -0.0000007    -2.5023570    -2.3796535    -3.4467765    -0.0034892
  0.00000000 20.00000000  0.00000000 -0.00365040     0.0000453     0.0000453    -0.0003136     0.0000004    -2.3062895    -2.3062895    -4.6496061     0.0015224
  0.69999999 20.00000000  0.00003171 -0.00364952     0.0000452     0.0000453    -0.0003136     0.0000062    -2.3078141    -2.3074644    -4.6497950     0.0186383
  1.39999998 20.00000000  0.00006335 -0.00364744     0.0000452     0.0000452    -0.0003133     0.0000126    -2.3055736    -2.3053300    -4.6454757     0.0381754
  2.97499990 20.00000000  0.00013398 -0.00363640     0.0000444     0.0000450    -0.0003122     0.0000260    -2.3103456    -2.3057402    -4.6361935     0.0784801
  4.55000019 20.00000000  0.00020327 -0.00361946     0.0000437     0.0000447    -0.0003099     0.0000395    -2.3051855    -2.2975162    -4.6113376     0.1196965
  7.05000019 20.00000000  0.00030891 -0.00357597     0.0000408     0.0000438    -0.0003052     0.0000589    -2.3168993    -2.2940636    -4.5684599     0.1778937
  9.55000019 20.00000000  0.00040714 -0.00351938     0.0000379     0.0000426    -0.0002982     0.0000773    -2.3095905    -2.2740156    -4.4945386     0.2343571
 13.55000019 20.00000000  0.00054394 -0.00339550     0.0000304     0.0000401    -0.0002849     0.0000995    -2.3286414    -2.2558160    -4.3646612     0.3009345
 17.54999924 20.00000000  0.00065060 -0.00325020     0.0000227     0.0000371    -0.0002691     0.0001167    -2.3352390    -2.2275392    -4.2067313     0.3536587
 25.04999924 20.00000000  0.00076516 -0.00294895     0.0000080     0.0000305    -0.0002336     0.0001214    -2.2993692    -2.1304564    -3.8285903     0.3680131
 32.54999924 20.00000000  0.00077096 -0.00266123    -0.0000060     0.0000237    -0.0002049     0.0001133    -2.3159017    -2.0932977    -3.5390830     0.3421702
 42.54999924 20.00000000  0.00067397 -0.00236268    -0.0000139     0.0000158    -0.0001725     0.0000845    -2.1969261    -1.9739864    -3.1538267     0.2576164
 52.54999924 20.00000000  0.00049324 -0.00215854    -0.0000213     0.0000094    -0.0001528     0.0000541    -2.1857919    -1.9552815    -2.9487982     0.1634511
 65.05000305 20.00000000  0.00024220 -0.00203242    -0.0000197     0.0000037    -0.0001411     0.0000249    -2.0846130    -1.9087158    -2.7849122     0.0756475
 77.55000305 20.00000000  0.00000000 -0.00199196    -0.0000190     0.0000000    -0.0001369    -0.0000002    -2.0666218    -1.9239558    -2.7432676    -0.0007134
  0.00000000 25.00000000  0.00000000 -0.00590079     0.0000903     0.0000903    -0.0004779    -0.0000002    -2.1613181    -2.1613181    -4.5966229    -0.0004253
  1.39999998 25.00000000  0.00012609 -0.00589458     0.0000900     0.0000901    -0.0004771     0.0000201    -2.1603824    -2.1601765    -4.5909812     0.0431489
  4.55000019 25.00000000  0.00040316 -0.00583691     0.0000859     0.0000886    -0.0004695     0.0000644    -2.1602277    -2.1485669    -4.5402921     0.1379422
  9.55000019 25.00000000  0.00079600 -0.00563321     0.0000709     0.0000834    -0.0004429     0.0001245    -2.1710190    -2.1174774    -4.3729311     0.2668351
 17.54999924 25.00000000  0.00122627 -0.00511824     0.0000342     0.0000699    -0.0003793     0.0001796    -2.2130374    -2.0599729    -3.9849903     0.3847599
 32.54999924 25.00000000  0.00132712 -0.00404413    -0.0000189     0.0000408    -0.0002649     0.0001556    -2.1639450    -1.9081244    -3.2179425     0.3333549
 52.54999924 25.00000000  0.00076436 -0.00319113    -0.0000350     0.0000145    -0.0001909     0.0000668    -1.9617962    -1.7495224    -2.6301920     0.1430988
 77.55000305 25.00000000  0.00000000 -0.00292489    -0.0000276     0.0000000    -0.0001717    -0.0000005    -1.8264993    -1.7083790    -2.4444481    -0.0010422
  0.00000000 30.00000000  0.00000000 -0.00842968     0.0001275     0.0001275    -0.0005314     0.0000003    -1.8222328    -1.8222328    -4.6458876     0.0005905
  0.69999999 30.00000000  0.00008911 -0.00842684     0.0001271     0.0001273    -0.0005310     0.0000127    -1.8264093    -1.8255453    -4.6469683     0.0272740
  1.39999998 30.00000000  0.00017794 -0.00841870     0.0001270     0.0001271    -0.0005301     0.0000259    -1.8213722    -1.8209426    -4.6374748     0.0555016
  2.97499990 30.00000000  0.00037556 -0.00837923     0.0001236     0.0001262    -0.0005260     0.0000538    -1.8368244    -1.8257207    -4.6210717     0.1152394
  4.55000019 30.00000000  0.00056743 -0.00831408     0.0001203     0.0001247    -0.0005190     0.0000816    -1.8322513    -1.8135196    -4.5722050     0.1747628
  7.05000019 30.00000000  0.00085410 -0.00815770     0.0001087     0.0001211    -0.0005027     0.0001187    -1.8732875    -1.8197328    -4.4932886     0.2544608
  9.55000019 30.00000000  0.00111070 -0.00794860     0.0000960     0.0001163    -0.0004810     0.0001541    -1.8915500    -1.8046348    -4.3645924     0.3301410
 13.55000019 30.00000000  0.00144002 -0.00752495     0.0000692     0.0001063    -0.0004378     0.0001848    -1.9510758    -1.7923479    -4.1239178     0.3960594
 17.54999924 30.00000000  0.00166461 -0.00704318     0.0000404     0.0000948    -0.0003919     0.0002088    -2.0264358    -1.7931664    -3.8792218     0.4474677
 25.04999924 30.00000000  0.00181737 -0.00610532     0.0000030     0.0000725    -0.0003076     0.0001904    -1.9763797    -1.6780965    -3.3071090     0.4080904
 32.54999924 30.00000000  0.00170886 -0.00530976    -0.0000312     0.0000525    -0.0002428     0.0001558    -2.0318273    -1.6732197    -2.9387168     0.3337897
 42.54999924 30.00000000  0.00136364 -0.00453926    -0.0000386     0.0000320    -0.0001899     0.0001033    -1.8492810    -1.5465906    -2.4979151     0.2214298
 52.54999924 30.00000000  0.00093727 -0.00406798    -0.0000448     0.0000178    -0.0001602     0.0000556    -1.7952236    -1.5269897    -2.2897867     0.1191717
 65.05000305 30.00000000  0.00043539 -0.00379236    -0.0000375     0.0000067    -0.0001460     0.0000243    -1.6760403    -1.4866807    -2.1410592     0.0519765
 77.55000305 30.00000000  0.00000000 -0.00370946    -0.0000322     0.0000000    -0.0001421    -0.0000011    -1.6319250    -1.4940453    -2.1031882    -0.0023086
  0.00000000 33.00000000  0.00000000 -0.01007895     0.0001504     0.0001504    -0.0005704     0.0000000    -1.6659965    -1.6659965    -4.7554371    -0.0000450
  1.39999998 33.00000000  0.00020981 -0.01006340     0.0001498     0.0001499    -0.0005688     0.0000332    -1.6644960    -1.6643878    -4.7443945     0.0710784
  4.55000019 33.00000000  0.00066749 -0.00991919     0.0001408     0.0001467    -0.0005535     0.0001045    -1.6769372    -1.6515631    -4.6524887     0.2238701
  9.55000019 33.00000000  0.00129332 -0.00942032     0.0001086     0.0001354    -0.0005023     0.0001937    -1.7490571    -1.6339689    -4.3672616     0.4150778
 17.54999924 33.00000000  0.00189845 -0.00821894     0.0000393     0.0001082    -0.0003907     0.0002456    -1.9159900    -1.6210178    -3.7591609     0.5262395
 32.54999924 33.00000000  0.00187383 -0.00601449    -0.0000384     0.0000576    -0.0002257     0.0001608    -1.9348993    -1.5234688    -2.7372889     0.3444777
 52.54999924 33.00000000  0.00099328 -0.00452428    -0.0000480     0.0000189    -0.0001437     0.0000484    -1.6869436    -1.4001707    -2.0970087     0.1036215
 77.55000305 33.00000000  0.00000000 -0.00411341    -0.0000335     0.0000000    -0.0001271    -0.0000014    -1.5199990    -1.3765062    -1.9212665    -0.0029032
  0.00000000 36.00000000  0.00000000 -0.01185232     0.0001751     0.0001751    -0.0006120     0.0000002    -1.4929039    -1.4929039    -4.8665540     0.0003270
  0.69999999 36.00000000  0.00012235 -0.01184707     0.0001744     0.0001748    -0.0006115     0.0000209    -1.5008345    -1.4992639    -4.8690259     0.0447010
  1.39999998 36.00000000  0.00024418 -0.01183154     0.0001742     0.0001744    -0.0006098     0.0000423    -1.4928068    -1.4918101    -4.8529218     0.0906803
  2.97499990 36.00000000  0.00051417 -0.01175793     0.0001682     0.0001728    -0.0006026     0.0000874    -1.5213397    -1.5013611    -4.8245399     0.1872478
  4.55000019 36.00000000  0.00077391 -0.01163517     0.0001619     0.0001701    -0.0005902     0.0001324    -1.5199106    -1.4846186    -4.7430037     0.2836418
  7.05000019 36.00000000  0.00115364 -0.01134553     0.0001417     0.0001636    -0.0005620     0.0001875    -1.5927705    -1.4988586    -4.6089227     0.4016936
  9.55000019 36.00000000  0.00148253 -0.01096265     0.0001194     0.0001552    -0.0005260     0.0002400    -1.6423564    -1.4888198    -4.4082795     0.5142496
 13.55000019 36.00000000  0.00187457 -0.01020874     0.0000786     0.0001383    -0.0004577     0.0002684    -1.7272354    -1.4711169    -4.0257256     0.5751631
 17.54999924 36.00000000  0.00211120 -0.00938754     0.0000354     0.0001203    -0.0003907     0.0002866    -1.8617337    -1.4980582    -3.6878579     0.6140822
 25.04999924 36.00000000  0.00219633 -0.00787566    -0.0000084     0.0000877    -0.0002829     0.0002315    -1.7820062    -1.3700571    -2.9583053     0.4961348
 32.54999924 36.00000000  0.00198455 -0.00666370    -0.0000463     0.0000610    -0.0002080     0.0001658    -1.8561856    -1.3963760    -2.5492932     0.3553500
 42.54999924 36.00000000  0.00151889 -0.00557029    -0.0000485     0.0000357    -0.0001541     0.0000970    -1.6388292    -1.2778851    -2.0913337     0.2078995
 52.54999924 36.00000000  0.00101408 -0.00493015    -0.0000501     0.0000193    -0.0001267     0.0000410    -1.5649068    -1.2675249    -1.8933661     0.0878817
 65.05000305 36.00000000  0.00046216 -0.00457513    -0.0000406     0.0000071    -0.0001148     0.0000171    -1.4442325    -1.2399421    -1.7621930     0.0367377
 77.55000305 36.00000000  0.00000000 -0.00447212    -0.0000334     0.0000000    -0.0001118    -0.0000018    -1.3878678    -1.2448003    -1.7241331    -0.0039428
  0.00000000 38.00000000  0.00000000 -0.01311753     0.0001936     0.0001936    -0.0006529     0.0000000    -1.4473049    -1.4473049    -5.0754913    -0.0000752
  1.39999998 38.00000000  0.00026977 -0.01309145     0.0001925     0.0001927    -0.0006502     0.0000509    -1.4456440    -1.4450358    -5.0572969     0.1089666
  4.55000019 38.00000000  0.00085244 -0.01285007     0.0001771     0.0001873    -0.0006250     0.0001584    -1.4734366    -1.4297077    -4.9110735     0.3394503
  9.55000019 38.00000000  0.00161415 -0.01203313     0.0001253     0.0001690    -0.0005444     0.0002809    -1.6066848    -1.4193015    -4.4768885     0.6018541
 17.54999924 38.00000000  0.00224545 -0.01016677     0.0000295     0.0001279    -0.0003863     0.0003165    -1.8352639    -1.4132180    -3.6169707     0.6781595
 32.54999924 38.00000000  0.00203073 -0.00706709    -0.0000515     0.0000624    -0.0001944     0.0001668    -1.7935973    -1.3056656    -2.4063853     0.3574561
 52.54999924 38.00000000  0.00100834 -0.00517292    -0.0000503     0.0000192    -0.0001162     0.0000355    -1.4785620    -1.1806340    -1.7608462     0.0761748
 77.55000305 38.00000000  0.00000000 -0.00468653    -0.0000327     0.0000000    -0.0001028    -0.0000020    -1.3007986    -1.1607841    -1.6011616    -0.0043428
  0.00000000 40.00000000  0.00000000 -0.01446408     0.0002141     0.0002141    -0.0006945     0.0000001    -1.3642357    -1.3642357    -5.2582949     0.0002501
  0.69999999 40.00000000  0.00014949 -0.01445608     0.0002130     0.0002136    -0.0006936     0.0000303    -1.3765041    -1.3740226    -5.2618087     0.0648446
  1.39999998 40.00000000  0.00029816 -0.01443223     0.0002126     0.0002130    -0.0006910     0.0000612    -1.3639117    -1.3624332    -5.2367424     0.1310675
  2.97499990 40.00000000  0.00062626 -0.01432082     0.0002032     0.0002105    -0.0006793     0.0001252    -1.4057931    -1.3744656    -5.1879968     0.2682790
  4.55000019 40.00000000  0.00093824 -0.01413505     0.0001932     0.0002062    -0.0006601     0.0001892    -1.4069176    -1.3510413    -5.0637703     0.4054704
  7.05000019 40.00000000  0.00138372 -0.01370249     0.0001630     0.0001963    -0.0006166     0.0002606    -1.5069331    -1.3643765    -4.8480920     0.5585345
  9.55000019 40.00000000  0.00175328 -0.01314031     0.0001299     0.0001836    -0.0005634     0.0003280    -1.5851356    -1.3550635    -4.5563675     0.7027959
 13.55000019 40.00000000  0.00216090 -0.01206238     0.0000766     0.0001595    -0.0004687     0.0003465    -1.6649285    -1.3099142    -4.0020020     0.7425390
 17.54999924 40.00000000  0.00236640 -0.01093259     0.0000217     0.0001348    -0.0003813     0.0003496    -1.8337346    -1.3488347    -3.5609147     0.7491937
 25.04999924 40.00000000  0.00235173 -0.00895812    -0.0000212     0.0000939    -0.0002588     0.0002601    -1.6858143    -1.1926360    -2.7039951     0.5574426
 32.54999924 40.00000000  0.00204849 -0.00744149    -0.0000568     0.0000629    -0.0001804     0.0001674    -1.7369620    -1.2238211    -2.2665970     0.3586762
 42.54999924 40.00000000  0.00151337 -0.00613667    -0.0000531     0.0000356    -0.0001293     0.0000896    -1.4859555    -1.1059793    -1.8124971     0.1920362
 52.54999924 40.00000000  0.00098661 -0.00539492    -0.0000499     0.0000188    -0.0001056     0.0000297    -1.3862847    -1.0918160    -1.6248760     0.0635556
 65.05000305 40.00000000  0.00044239 -0.00499651    -0.0000395     0.0000068    -0.0000959     0.0000117    -1.2707013    -1.0724219    -1.5123649     0.0250793
 77.55000305 40.00000000  0.00000000 -0.00488314    -0.0000313     0.0000000    -0.0000937    -0.0000023    -1.2060591    -1.0718392    -1.4735390    -0.0049970
  0.00000000 41.00000000  0.00000000 -0.01517270     0.0002253     0.0002253    -0.0007219     0.0000001    -1.3588034    -1.3588034    -5.4182923     0.0002189
  1.39999998 41.00000000  0.00031358 -0.01513692     0.0002237     0.0002240    -0.0007179     0.0000675    -1.3576479    -1.3563967    -5.3931818     0.1447304
  4.55000019 41.00000000  0.00098458 -0.01480638     0.0002016     0.0002164    -0.0006825     0.0002082    -1.4032204    -1.3397540    -5.1920334     0.4461601
  9.55000019 41.00000000  0.00182497 -0.01370909     0.0001313     0.0001911    -0.0005736     0.0003550    -1.5907275    -1.3342543    -4.6113559     0.7607495
 17.54999924 41.00000000  0.00242295 -0.01131290     0.0000167     0.0001381    -0.0003775     0.0003655    -1.8378617    -1.3178057    -3.5275465     0.7832813
 32.54999924 41.00000000  0.00204698 -0.00761842    -0.0000592     0.0000629    -0.0001731     0.0001662    -1.7051500    -1.1820165    -2.1931992     0.3561918
 52.54999924 41.00000000  0.00096949 -0.00549787    -0.0000494     0.0000184    -0.0001005     0.0000265    -1.3383336    -1.0475774    -1.5573425     0.0567947
 77.55000305 41.00000000  0.00000000 -0.00497469    -0.0000305     0.0000000    -0.0000895    -0.0000024    -1.1588238    -1.0282508    -1.4118032    -0.0052207
  0.00000000 42.00000000  0.00000000 -0.01590783     0.0002373     0.0002373    -0.0007484     0.0000001    -1.3298882    -1.3298882    -5.5540432     0.0002719
  0.69999999 42.00000000  0.00016556 -0.01589785     0.0002357     0.0002365    -0.0007473     0.0000370    -1.3473827    -1.3440787    -5.5604611     0.0792167
  1.39999998 42.00000000  0.00033003 -0.01586808     0.0002354     0.0002357    -0.0007440     0.0000746    -1.3301188    -1.3285788    -5.5274111     0.1599325
  2.97499990 42.00000000  0.00069219 -0.01572991     0.0002233     0.0002327    -0.0007290     0.0001517    -1.3830816    -1.3430165    -5.4645058     0.3251745
  4.55000019 42.00000000  0.00103350 -0.01549999     0.0002102     0.0002271    -0.0007042     0.0002289    -1.3870924    -1.3144021    -5.3060434     0.4905154
  7.05000019 42.00000000  0.00151263 -0.01496885     0.0001730     0.0002146    -0.0006494     0.0003095    -1.5022039    -1.3242060    -5.0266701     0.6632401
  9.55000019 42.00000000  0.00189862 -0.01428744     0.0001321     0.0001988    -0.0005839     0.0003842    -1.6030715    -1.3170127    -4.6715834     0.8232592
 13.55000019 42.00000000  0.00229913 -0.01300266     0.0000719     0.0001697    -0.0004716     0.0003926    -1.6635480    -1.2445040    -3.9928738     0.8412864
 17.54999924 42.00000000  0.00247382 -0.01168768     0.0000112     0.0001410    -0.0003735     0.0003824    -1.8498853    -1.2936343    -3.4985787     0.8194336
 25.04999924 42.00000000  0.00239048 -0.00945989    -0.0000291     0.0000954    -0.0002435     0.0002717    -1.6438993    -1.1101509    -2.5629005     0.5822225
 32.54999924 42.00000000  0.00203713 -0.00778760    -0.0000615     0.0000626    -0.0001656     0.0001651    -1.6739955    -1.1420490    -2.1198946     0.3538911
 42.54999924 42.00000000  0.00147513 -0.00638285    -0.0000544     0.0000347    -0.0001169     0.0000843    -1.4048889    -1.0230004    -1.6726361     0.1805697
 52.54999924 42.00000000  0.00094834 -0.00559592    -0.0000487     0.0000180    -0.0000954     0.0000233    -1.2886312    -1.0027222    -1.4888722     0.0498404
 65.05000305 42.00000000  0.00042118 -0.00517950    -0.0000379     0.0000065    -0.0000871     0.0000089    -1.1783790    -0.9880568    -1.3888840     0.0189678
 77.55000305 42.00000000  0.00000000 -0.00506213    -0.0000295     0.0000000    -0.0000853    -0.0000026    -1.1095016    -0.9832643    -1.3486592    -0.0055125
  0.00000000 43.00000000  0.00000000 -0.01667238     0.0002501     0.0002501    -0.0007808    -0.0000001    -1.3332854    -1.3332854    -5.7512817    -0.0001551
  1.39999998 43.00000000  0.00034768 -0.01662772     0.0002479     0.0002483    -0.0007757     0.0000828    -1.3330295    -1.3310995    -5.7198179     0.1774619
  4.55000019 43.00000000  0.00108509 -0.01621676     0.0002191     0.0002385    -0.0007298     0.0002527    -1.3951094    -1.3118344    -5.4617102     0.5415366
  9.55000019 43.00000000  0.00197276 -0.01487674     0.0001319     0.0002066    -0.0005939     0.0004153    -1.6236761    -1.3037569    -4.7342931     0.8899404
 17.54999924 43.00000000  0.00251984 -0.01205905     0.0000048     0.0001436    -0.0003677     0.0003972    -1.8597825    -1.2648452    -3.4560408     0.8512376
 32.54999924 43.00000000  0.00201948 -0.00794948    -0.0000636     0.0000620    -0.0001579     0.0001627    -1.6388872    -1.1005991    -2.0432482     0.3486997
 52.54999924 43.00000000  0.00092293 -0.00568876    -0.0000477     0.0000176    -0.0000905     0.0000199    -1.2383115    -0.9586480    -1.4217524     0.0427258
 77.55000305 43.00000000  0.00000000 -0.00514532    -0.0000283     0.0000000    -0.0000812    -0.0000027    -1.0606100    -0.9391969    -1.2873823    -0.0057282
  0.00000000 44.00000000  0.00000000 -0.01746938     0.0002637     0.0002637    -0.0008133     0.0000000    -1.3192573    -1.3192573    -5.9350990    -0.0000458
  0.69999999 44.00000000  0.00018394 -0.01745691     0.0002618     0.0002628    -0.0008117     0.0000454    -1.3395259    -1.3353285    -5.9403171     0.0973371
  1.39999998 44.00000000  0.00036650 -0.01741947     0.0002611     0.0002618    -0.0008073     0.0000920    -1.3185839    -1.3156816    -5.8974509     0.1970707
  2.97499990 44.00000000  0.00076644 -0.01724632     0.0002455     0.0002576    -0.0007874     0.0001854    -1.3851453    -1.3329939    -5.8117233     0.3972489
  4.55000019 44.00000000  0.00113969 -0.01695964     0.0002280     0.0002505    -0.0007555     0.0002788    -1.3975461    -1.3011711    -5.6126131     0.5974534
  7.05000019 44.00000000  0.00165104 -0.01630330     0.0001816     0.0002342    -0.0006851     0.0003686    -1.5296195    -1.3042813    -5.2439425     0.7899456
  9.55000019 44.00000000  0.00204775 -0.01547521     0.0001310     0.0002144    -0.0006045     0.0004493    -1.6590550    -1.3015216    -4.8111131     0.9628319
 13.55000019 44.00000000  0.00242769 -0.01394660     0.0000637     0.0001792    -0.0004720     0.0004423    -1.6907035    -1.1959627    -3.9866869     0.9478139
 17.54999924 44.00000000  0.00255756 -0.01242308    -0.0000022     0.0001457    -0.0003618     0.0004135    -1.8812942    -1.2471016    -3.4224090     0.8861009
 25.04999924 44.00000000  0.00239491 -0.00993030    -0.0000377     0.0000956    -0.0002270     0.0002806    -1.6105284    -1.0393532    -2.4219335     0.6011825
 32.54999924 44.00000000  0.00199253 -0.00810341    -0.0000655     0.0000612    -0.0001501     0.0001604    -1.6038322    -1.0608525    -1.9665137     0.3436721
 42.54999924 44.00000000  0.00141113 -0.00660435    -0.0000550     0.0000332    -0.0001046     0.0000776    -1.3188759    -0.9412406    -1.5316871     0.1663164
 52.54999924 44.00000000  0.00089351 -0.00577691    -0.0000465     0.0000170    -0.0000856     0.0000166    -1.1858892    -0.9137104    -1.3534324     0.0355396
 65.05000305 44.00000000  0.00039240 -0.00534515    -0.0000357     0.0000060    -0.0000786     0.0000058    -1.0814223    -0.9023965    -1.2650533     0.0123796
 77.55000305 44.00000000  0.00000000 -0.00522462    -0.0000270     0.0000000    -0.0000773    -0.0000028    -1.0098869    -0.8939852    -1.2250762    -0.0060125
  0.00000000 45.00000000  0.00000000 -0.01830228     0.0002783     0.0002783    -0.0008525     0.0000001    -1.3422671    -1.3422671    -6.1885653     0.0001116
  1.39999998 45.00000000  0.00038650 -0.01824590     0.0002754     0.0002761    -0.0008461     0.0001026    -1.3445561    -1.3418284    -6.1510956     0.2199292
  4.55000019 45.00000000  0.00119668 -0.01772992     0.0002370     0.0002630    -0.0007854     0.0003091    -1.4305642    -1.3192109    -5.8125619     0.6622679
  9.55000019 45.00000000  0.00212174 -0.01608497     0.0001284     0.0002222    -0.0006136     0.0004843    -1.7044940    -1.3025980    -4.8845708     1.0378326
 17.54999924 45.00000000  0.00258795 -0.01278172    -0.0000100     0.0001475    -0.0003540     0.0004263    -1.8988102    -1.2238634    -3.3727759     0.9134922
 32.54999924 45.00000000  0.00195706 -0.00824967    -0.0000669     0.0000601    -0.0001423     0.0001566    -1.5641706    -1.0197795    -1.8871486     0.3356190
 52.54999924 45.00000000  0.00085997 -0.00586007    -0.0000450     0.0000164    -0.0000809     0.0000132    -1.1325065    -0.8693434    -1.2863236     0.0282638
 77.55000305 45.00000000  0.00000000 -0.00529994    -0.0000256     0.0000000    -0.0000735    -0.0000029    -0.9593699    -0.8495309    -1.1644574    -0.0062440
  0.00000000 46.00000000  0.00000000 -0.01917430     0.0002939     0.0002939    -0.0011473     0.0000000    -2.1032097    -2.1032097    -6.4617207    -0.0000083
  0.69999999 46.00000000  0.00020486 -0.01915864     0.0002914     0.0002927    -0.0011442     0.0000839    -2.1200236    -2.1158679    -6.4620077     0.1198189
  1.39999998 46.00000000  0.00040791 -0.01911165     0.0002906     0.0002914    -0.0011361     0.0001701    -2.0911970    -2.0886963    -6.4083604     0.2436867
  2.97499990 46.00000000  0.00085046 -0.01889098     0.0002696     0.0002859    -0.0011045     0.0003424    -2.1328119    -2.0804660    -6.2843844     0.4895071
  4.55000019 46.00000000  0.00125710 -0.01853052     0.0002459     0.0002763    -0.0010514     0.0005072    -2.1071388    -2.0093368    -6.0244073     0.7273766
  7.05000019 46.00000000  0.00179749 -0.01771187     0.0001874     0.0002550    -0.0009398     0.0006604    -2.1318558    -1.9146144    -5.5230145     0.9431033
  9.55000019 46.00000000  0.00219398 -0.01670245     0.0001246     0.0002297    -0.0008197     0.0007764    -2.1657140    -1.8278619    -4.9884721     1.1119583
 13.55000019 46.00000000  0.00253592 -0.01488719     0.0000515     0.0001872    -0.0006220     0.0007400    -1.9716576    -1.5357367    -3.9731539     1.0573336
 17.54999924 46.00000000  0.00260624 -0.01313098    -0.0000184     0.0001485    -0.0004776     0.0006556    -2.0079460    -1.4714956    -3.3414626     0.9374059
 25.04999924 46.00000000  0.00235595 -0.01036580    -0.0000463     0.0000941    -0.0002963     0.0004272    -1.5600231    -1.1087950    -2.2700280     0.6107170
 32.54999924 46.00000000  0.00191126 -0.00838794    -0.0000681     0.0000587    -0.0002046     0.0002290    -1.4439691    -1.0363383    -1.8074520     0.3268544
 42.54999924 46.00000000  0.00131932 -0.00680146    -0.0000544     0.0000310    -0.0001465     0.0001033    -1.1514569    -0.8768068    -1.3893804     0.1478042
 52.54999924 46.00000000  0.00082246 -0.00593877    -0.0000433     0.0000157    -0.0001235     0.0000158    -1.0102525    -0.8206510    -1.2174477     0.0221884
 65.05000305 46.00000000  0.00035596 -0.00549430    -0.0000329     0.0000055    -0.0001150     0.0000034    -0.9260519    -0.8027187    -1.1423061     0.0049875
 77.55000305 46.00000000  0.00000000 -0.00537158    -0.0000241     0.0000000    -0.0001125    -0.0000031    -0.8635880    -0.7862665    -1.1020782    -0.0049075
  0.00000000 47.00000000  0.00000000 -0.02065514     0.0003848     0.0003848    -0.0015587     0.0000015    -2.5569746    -2.5569746    -6.7218229     0.0015577
  1.39999998 47.00000000  0.00053248 -0.02057683     0.0003788     0.0003803    -0.0015436     0.0002284    -2.5498804    -2.5466446    -6.6692991     0.2447084
  4.55000019 47.00000000  0.00162267 -0.01987968     0.0003073     0.0003566    -0.0014113     0.0006800    -2.5446579    -2.4389244    -6.2273780     0.7285656
  9.55000019 47.00000000  0.00272986 -0.01774215     0.0001281     0.0002858    -0.0010614     0.0010149    -2.5002987    -2.1622327    -5.0491531     1.0873409
 17.54999924 47.00000000  0.00301533 -0.01373325    -0.0000469     0.0001718    -0.0005939     0.0008350    -2.1102902    -1.6416675    -3.2824804     0.8946961
 32.54999924 47.00000000  0.00199932 -0.00865319    -0.0000812     0.0000614    -0.0002555     0.0002842    -1.3537465    -1.0481218    -1.7272317     0.3045296
 52.54999924 47.00000000  0.00079128 -0.00610406    -0.0000438     0.0000151    -0.0001601     0.0000151    -0.9029742    -0.7769558    -1.1523477     0.0161654