 TITLE = "Test Section for the Analysis of BOEING 777-200A Wheel Load With 3psi Residual S"
 VARIABLES = "R","Z","DISP_R","DISP_Z","EPSR","EPSTH","EPSZ","EPSRZ","SIGMAR","SIGMATH","SIGMAZ","SIGMARZ","SIGMA1","SIGMA2","SIGMA3","E_VERT","E_HORIZ","G_MOD","MRRATIO","G_RATIO"
 ZONE T="GEOM & DISP 1", N=  533, E=  160, F=FEPOINT, ET=QUADRILATERAL
  .00000E+00  .00000E+00  .00000E+00  .00000E+00  .000000E+00  .000000E+00  .000000E+00  .000000E+00  .000000E+00  .000000E+00  .000000E+00  .000000E+00  .000000E+00  .000000E+00  .000000E+00  .000000E+00  .000000E+00  .000000E+00  .00000E+00  .00000E+00
  .13100E+01  .00000E+00  .00000E+00  .00000E+00  .000000E+00  .000000E+00  .000000E+00  .000000E+00  .000000E+00  .000000E+00  .000000E+00  .000000E+00  .000000E+00  .000000E+00  .000000E+00  .000000E+00  .000000E+00  .000000E+00  .00000E+00  .00000E+00
  .26200E+01  .00000E+00  .00000E+00  .00000E+00  .000000E+00  .000000E+00  .000000E+00  .000000E+00  .000000E+00  .000000E+00  .000000E+00  .000000E+00  .000000E+00  .000000E+00  .000000E+00  .000000E+00  .000000E+00  .000000E+00  .00000E+00  .00000E+00
  .41200E+01  .00000E+00  .00000E+00  .00000E+00  .000000E+00  .000000E+00  .000000E+00  .000000E+00  .000000E+00  .000000E+00  .000000E+00  .000000E+00  .000000E+00  .000000E+00  .000000E+00  .000000E+00  .000000E+00  .000000E+00  .00000E+00  .00000E+00
  .56200E+01  .00000E+00  .00000E+00  .00000E+00  .000000E+00  .000000E+00  .000000E+00  .000000E+00  .000000E+00  .000000E+00  .000000E+00  .000000E+00  .000000E+00  .000000E+00  .000000E+00  .000000E+00  .000000E+00  .000000E+00  .00000E+00  .00000E+00
  .71200E+01  .00000E+00  .00000E+00  .00000E+00  .000000E+00  .000000E+00  .000000E+00  .000000E+00  .000000E+00  .000000E+00  .000000E+00  .000000E+00  .000000E+00  .000000E+00  .000000E+00  .000000E+00  .000000E+00  .000000E+00  .00000E+00  .00000E+00
  .86200E+01  .00000E+00  .00000E+00  .00000E+00  .000000E+00  .000000E+00  .000000E+00  .000000E+00  .000000E+00  .000000E+00  .000000E+00  .000000E+00  .000000E+00  .000000E+00  .000000E+00  .000000E+00  .000000E+00  .000000E+00  .00000E+00  .00000E+00
  .11120E+02  .00000E+00  .00000E+00  .00000E+00  .000000E+00  .000000E+00  .000000E+00  .000000E+00  .000000E+00  .000000E+00  .000000E+00  .000000E+00  .000000E+00  .000000E+00  .000000E+00  .000000E+00  .000000E+00  .000000E+00  .00000E+00  .00000E+00
  .13620E+02  .00000E+00  .00000E+00  .00000E+00  .000000E+00  .000000E+00  .000000E+00  .000000E+00  .000000E+00  .000000E+00  .000000E+00  .000000E+00  .000000E+00  .000000E+00  .000000E+00  .000000E+00  .000000E+00  .000000E+00  .00000E+00  .00000E+00
  .17620E+02  .00000E+00  .00000E+00  .00000E+00  .000000E+00  .000000E+00  .000000E+00  .000000E+00  .000000E+00  .000000E+00  .000000E+00  .000000E+00  .000000E+00  .000000E+00  .000000E+00  .000000E+00  .000000E+00  .000000E+00  .00000E+00  .00000E+00
  .21620E+02  .00000E+00  .00000E+00  .00000E+00  .000000E+00  .000000E+00  .000000E+00  .000000E+00  .000000E+00  .000000E+00  .000000E+00  .000000E+00  .000000E+00  .000000E+00  .000000E+00  .000000E+00  .000000E+00  .000000E+00  .00000E+00  .00000E+00
  .27620E+02  .00000E+00  .00000E+00  .00000E+00  .000000E+00  .000000E+00  .000000E+00  .000000E+00  .000000E+00  .000000E+00  .000000E+00  .000000E+00  .000000E+00  .000000E+00  .000000E+00  .000000E+00  .000000E+00  .000000E+00  .00000E+00  .00000E+00
  .33620E+02  .00000E+00  .00000E+00  .00000E+00  .000000E+00  .000000E+00  .000000E+00  .000000E+00  .000000E+00  .000000E+00  .000000E+00  .000000E+00  .000000E+00  .000000E+00  .000000E+00  .000000E+00  .000000E+00  .000000E+00  .00000E+00  .00000E+00
  .41120E+02  .00000E+00  .00000E+00  .00000E+00  .000000E+00  .000000E+00  .000000E+00  .000000E+00  .000000E+00  .000000E+00  .000000E+00  .000000E+00  .000000E+00  .000000E+00  .000000E+00  .000000E+00  .000000E+00  .000000E+00  .00000E+00  .00000E+00
  .48620E+02  .00000E+00  .00000E+00  .00000E+00  .000000E+00  .000000E+00  .000000E+00  .000000E+00  .000000E+00  .000000E+00  .000000E+00  .000000E+00  .000000E+00  .000000E+00  .000000E+00  .000000E+00  .000000E+00  .000000E+00  .00000E+00  .00000E+00
  .58620E+02  .00000E+00  .00000E+00  .00000E+00  .000000E+00  .000000E+00  .000000E+00  .000000E+00  .000000E+00  .000000E+00  .000000E+00  .000000E+00  .000000E+00  .000000E+00  .000000E+00  .000000E+00  .000000E+00  .000000E+00  .00000E+00  .00000E+00
  .68620E+02  .00000E+00  .00000E+00  .00000E+00  .000000E+00  .000000E+00  .000000E+00  .000000E+00  .000000E+00  .000000E+00  .000000E+00  .000000E+00  .000000E+00  .000000E+00  .000000E+00  .000000E+00  .000000E+00  .000000E+00  .00000E+00  .00000E+00
  .78620E+02  .00000E+00  .00000E+00  .00000E+00  .000000E+00  .000000E+00  .000000E+00  .000000E+00  .000000E+00  .000000E+00  .000000E+00  .000000E+00  .000000E+00  .000000E+00  .000000E+00  .000000E+00  .000000E+00  .000000E+00  .00000E+00  .00000E+00
  .88620E+02  .00000E+00  .00000E+00  .00000E+00  .000000E+00  .000000E+00  .000000E+00  .000000E+00  .000000E+00  .000000E+00  .000000E+00  .000000E+00  .000000E+00  .000000E+00  .000000E+00  .000000E+00  .000000E+00  .000000E+00  .00000E+00  .00000E+00
  .98620E+02  .00000E+00  .00000E+00  .00000E+00  .000000E+00  .000000E+00  .000000E+00  .000000E+00  .000000E+00  .000000E+00  .000000E+00  .000000E+00  .000000E+00  .000000E+00  .000000E+00  .000000E+00  .000000E+00  .000000E+00  .00000E+00  .00000E+00
  .10862E+03  .00000E+00  .00000E+00  .00000E+00  .000000E+00  .000000E+00  .000000E+00  .000000E+00  .000000E+00  .000000E+00  .000000E+00  .000000E+00  .000000E+00  .000000E+00  .000000E+00  .000000E+00  .000000E+00  .000000E+00  .00000E+00  .00000E+00
  .00000E+00  .20000E+02  .00000E+00 -.60446E-03  .000000E+00  .000000E+00  .000000E+00  .000000E+00  .000000E+00  .000000E+00  .000000E+00  .000000E+00  .000000E+00  .000000E+00  .000000E+00  .000000E+00  .000000E+00  .000000E+00  .00000E+00  .00000E+00
  .26200E+01  .20000E+02  .11824E-07 -.60446E-03  .000000E+00  .000000E+00  .000000E+00  .000000E+00  .000000E+00  .000000E+00  .000000E+00  .000000E+00  .000000E+00  .000000E+00  .000000E+00  .000000E+00  .000000E+00  .000000E+00  .00000E+00  .00000E+00
  .56200E+01  .20000E+02  .25282E-07 -.60446E-03  .000000E+00  .000000E+00  .000000E+00  .000000E+00  .000000E+00  .000000E+00  .000000E+00  .000000E+00  .000000E+00  .000000E+00  .000000E+00  .000000E+00  .000000E+00  .000000E+00  .00000E+00  .00000E+00
  .86200E+01  .20000E+02  .38574E-07 -.60446E-03  .000000E+00  .000000E+00  .000000E+00  .000000E+00  .000000E+00  .000000E+00  .000000E+00  .000000E+00  .000000E+00  .000000E+00  .000000E+00  .000000E+00  .000000E+00  .000000E+00  .00000E+00  .00000E+00
  .13620E+02  .20000E+02  .60024E-07 -.60446E-03  .000000E+00  .000000E+00  .000000E+00  .000000E+00  .000000E+00  .000000E+00  .000000E+00  .000000E+00  .000000E+00  .000000E+00  .000000E+00  .000000E+00  .000000E+00  .000000E+00  .00000E+00  .00000E+00
  .21620E+02  .20000E+02  .91180E-07 -.60445E-03  .000000E+00  .000000E+00  .000000E+00  .000000E+00  .000000E+00  .000000E+00  .000000E+00  .000000E+00  .000000E+00  .000000E+00  .000000E+00  .000000E+00  .000000E+00  .000000E+00  .00000E+00  .00000E+00
  .33620E+02  .20000E+02  .12736E-06 -.60443E-03  .000000E+00  .000000E+00  .000000E+00  .000000E+00  .000000E+00  .000000E+00  .000000E+00  .000000E+00  .000000E+00  .000000E+00  .000000E+00  .000000E+00  .000000E+00  .000000E+00  .00000E+00  .00000E+00
  .48620E+02  .20000E+02  .14897E-06 -.60439E-03  .000000E+00  .000000E+00  .000000E+00  .000000E+00  .000000E+00  .000000E+00  .000000E+00  .000000E+00  .000000E+00  .000000E+00  .000000E+00  .000000E+00  .000000E+00  .000000E+00  .00000E+00  .00000E+00
  .68620E+02  .20000E+02  .13275E-06 -.60435E-03  .000000E+00  .000000E+00  .000000E+00  .000000E+00  .000000E+00  .000000E+00  .000000E+00  .000000E+00  .000000E+00  .000000E+00  .000000E+00  .000000E+00  .000000E+00  .000000E+00  .00000E+00  .00000E+00
  .88620E+02  .20000E+02  .74922E-07 -.60431E-03  .000000E+00  .000000E+00  .000000E+00  .000000E+00  .000000E+00  .000000E+00  .000000E+00  .000000E+00  .000000E+00  .000000E+00  .000000E+00  .000000E+00  .000000E+00  .000000E+00  .00000E+00  .00000E+00
  .10862E+03  .20000E+02  .00000E+00 -.60430E-03  .000000E+00  .000000E+00  .000000E+00  .000000E+00  .000000E+00  .000000E+00  .000000E+00  .000000E+00  .000000E+00  .000000E+00  .000000E+00  .000000E+00  .000000E+00  .000000E+00  .00000E+00  .00000E+00
  .00000E+00  .40000E+02  .00000E+00 -.12091E-02  .000000E+00  .000000E+00  .000000E+00  .000000E+00  .000000E+00  .000000E+00  .000000E+00  .000000E+00  .000000E+00  .000000E+00  .000000E+00  .000000E+00  .000000E+00  .000000E+00  .00000E+00  .00000E+00
  .13100E+01  .40000E+02  .11458E-07 -.12091E-02  .000000E+00  .000000E+00  .000000E+00  .000000E+00  .000000E+00  .000000E+00  .000000E+00  .000000E+00  .000000E+00  .000000E+00  .000000E+00  .000000E+00  .000000E+00  .000000E+00  .00000E+00  .00000E+00
  .26200E+01  .40000E+02  .22897E-07 -.12091E-02  .000000E+00  .000000E+00  .000000E+00  .000000E+00  .000000E+00  .000000E+00  .000000E+00  .000000E+00  .000000E+00  .000000E+00  .000000E+00  .000000E+00  .000000E+00  .000000E+00  .00000E+00  .00000E+00
  .41200E+01  .40000E+02  .35988E-07 -.12091E-02  .000000E+00  .000000E+00  .000000E+00  .000000E+00  .000000E+00  .000000E+00  .000000E+00  .000000E+00  .000000E+00  .000000E+00  .000000E+00  .000000E+00  .000000E+00  .000000E+00  .00000E+00  .00000E+00
  .56200E+01  .40000E+02  .49007E-07 -.12091E-02  .000000E+00  .000000E+00  .000000E+00  .000000E+00  .000000E+00  .000000E+00  .000000E+00  .000000E+00  .000000E+00  .000000E+00  .000000E+00  .000000E+00  .000000E+00  .000000E+00  .00000E+00  .00000E+00
  .71200E+01  .40000E+02  .61908E-07 -.12091E-02  .000000E+00  .000000E+00  .000000E+00  .000000E+00  .000000E+00  .000000E+00  .000000E+00  .000000E+00  .000000E+00  .000000E+00  .000000E+00  .000000E+00  .000000E+00  .000000E+00  .00000E+00  .00000E+00
  .86200E+01  .40000E+02  .74684E-07 -.12091E-02  .000000E+00  .000000E+00  .000000E+00  .000000E+00  .000000E+00  .000000E+00  .000000E+00  .000000E+00  .000000E+00  .000000E+00  .000000E+00  .000000E+00  .000000E+00  .000000E+00  .00000E+00  .00000E+00
  .11120E+02  .40000E+02  .95571E-07 -.12091E-02  .000000E+00  .000000E+00  .000000E+00  .000000E+00  .000000E+00  .000000E+00  .000000E+00  .000000E+00  .000000E+00  .000000E+00  .000000E+00  .000000E+00  .000000E+00  .000000E+00  .00000E+00  .00000E+00
  .13620E+02  .40000E+02  .11595E-06 -.12091E-02  .000000E+00  .000000E+00  .000000E+00  .000000E+00  .000000E+00  .000000E+00  .000000E+00  .000000E+00  .000000E+00  .000000E+00  .000000E+00  .000000E+00  .000000E+00  .000000E+00  .00000E+00  .00000E+00
  .17620E+02  .40000E+02  .14710E-06 -.12091E-02  .000000E+00  .000000E+00  .000000E+00  .000000E+00  .000000E+00  .000000E+00  .000000E+00  .000000E+00  .000000E+00  .000000E+00  .000000E+00  .000000E+00  .000000E+00  .000000E+00  .00000E+00  .00000E+00
  .21620E+02  .40000E+02  .17619E-06 -.12090E-02  .000000E+00  .000000E+00  .000000E+00  .000000E+00  .000000E+00  .000000E+00  .000000E+00  .000000E+00  .000000E+00  .000000E+00  .000000E+00  .000000E+00  .000000E+00  .000000E+00  .00000E+00  .00000E+00
  .27620E+02  .40000E+02  .21471E-06 -.12090E-02  .000000E+00  .000000E+00  .000000E+00  .000000E+00  .000000E+00  .000000E+00  .000000E+00  .000000E+00  .000000E+00  .000000E+00  .000000E+00  .000000E+00  .000000E+00  .000000E+00  .00000E+00  .00000E+00
  .33620E+02  .40000E+02  .24637E-06 -.12090E-02  .000000E+00  .000000E+00  .000000E+00  .000000E+00  .000000E+00  .000000E+00  .000000E+00  .000000E+00  .000000E+00  .000000E+00  .000000E+00  .000000E+00  .000000E+00  .000000E+00  .00000E+00  .00000E+00
  .41120E+02  .40000E+02  .27405E-06 -.12089E-02  .000000E+00  .000000E+00  .000000E+00  .000000E+00  .000000E+00  .000000E+00  .000000E+00  .000000E+00  .000000E+00  .000000E+00  .000000E+00  .000000E+00  .000000E+00  .000000E+00  .00000E+00  .00000E+00
  .48620E+02  .40000E+02  .28854E-06 -.12088E-02  .000000E+00  .000000E+00  .000000E+00  .000000E+00  .000000E+00  .000000E+00  .000000E+00  .000000E+00  .000000E+00  .000000E+00  .000000E+00  .000000E+00  .000000E+00  .000000E+00  .00000E+00  .00000E+00
  .58620E+02  .40000E+02  .28449E-06 -.12088E-02  .000000E+00  .000000E+00  .000000E+00  .000000E+00  .000000E+00  .000000E+00  .000000E+00  .000000E+00  .000000E+00  .000000E+00  .000000E+00  .000000E+00  .000000E+00  .000000E+00  .00000E+00  .00000E+00
  .68620E+02  .40000E+02  .25751E-06 -.12087E-02  .000000E+00  .000000E+00  .000000E+00  .000000E+00  .000000E+00  .000000E+00  .000000E+00  .000000E+00  .000000E+00  .000000E+00  .000000E+00  .000000E+00  .000000E+00  .000000E+00  .00000E+00  .00000E+00
  .78620E+02  .40000E+02  .20839E-06 -.12086E-02  .000000E+00  .000000E+00  .000000E+00  .000000E+00  .000000E+00  .000000E+00  .000000E+00  .000000E+00  .000000E+00  .000000E+00  .000000E+00  .000000E+00  .000000E+00  .000000E+00  .00000E+00  .00000E+00
  .88620E+02  .40000E+02  .14492E-06 -.12086E-02  .000000E+00  .000000E+00  .000000E+00  .000000E+00  .000000E+00  .000000E+00  .000000E+00  .000000E+00  .000000E+00  .000000E+00  .000000E+00  .000000E+00  .000000E+00  .000000E+00  .00000E+00  .00000E+00
  .98620E+02  .40000E+02  .72810E-07 -.12085E-02  .000000E+00  .000000E+00  .000000E+00  .000000E+00  .000000E+00  .000000E+00  .000000E+00  .000000E+00  .000000E+00  .000000E+00  .000000E+00  .000000E+00  .000000E+00  .000000E+00  .00000E+00  .00000E+00
  .10862E+03  .40000E+02  .00000E+00 -.12085E-02  .000000E+00  .000000E+00  .000000E+00  .000000E+00  .000000E+00  .000000E+00  .000000E+00  .000000E+00  .000000E+00  .000000E+00  .000000E+00  .000000E+00  .000000E+00  .000000E+00  .00000E+00  .00000E+00
  .00000E+00  .60000E+02  .00000E+00 -.18139E-02  .000000E+00  .000000E+00  .000000E+00  .000000E+00  .000000E+00  .000000E+00  .000000E+00  .000000E+00  .000000E+00  .000000E+00  .000000E+00  .000000E+00  .000000E+00  .000000E+00  .00000E+00  .00000E+00
  .26200E+01  .60000E+02  .43193E-07 -.18139E-02  .000000E+00  .000000E+00  .000000E+00  .000000E+00  .000000E+00  .000000E+00  .000000E+00  .000000E+00  .000000E+00  .000000E+00  .000000E+00  .000000E+00  .000000E+00  .000000E+00  .00000E+00  .00000E+00
  .56200E+01  .60000E+02  .92192E-07 -.18139E-02  .000000E+00  .000000E+00  .000000E+00  .000000E+00  .000000E+00  .000000E+00  .000000E+00  .000000E+00  .000000E+00  .000000E+00  .000000E+00  .000000E+00  .000000E+00  .000000E+00  .00000E+00  .00000E+00
  .86200E+01  .60000E+02  .14046E-06 -.18139E-02  .000000E+00  .000000E+00  .000000E+00  .000000E+00  .000000E+00  .000000E+00  .000000E+00  .000000E+00  .000000E+00  .000000E+00  .000000E+00  .000000E+00  .000000E+00  .000000E+00  .00000E+00  .00000E+00
  .13620E+02  .60000E+02  .21831E-06 -.18139E-02  .000000E+00  .000000E+00  .000000E+00  .000000E+00  .000000E+00  .000000E+00  .000000E+00  .000000E+00  .000000E+00  .000000E+00  .000000E+00  .000000E+00  .000000E+00  .000000E+00  .00000E+00  .00000E+00
  .21620E+02  .60000E+02  .33195E-06 -.18138E-02  .000000E+00  .000000E+00  .000000E+00  .000000E+00  .000000E+00  .000000E+00  .000000E+00  .000000E+00  .000000E+00  .000000E+00  .000000E+00  .000000E+00  .000000E+00  .000000E+00  .00000E+00  .00000E+00
  .33620E+02  .60000E+02  .46386E-06 -.18137E-02  .000000E+00  .000000E+00  .000000E+00  .000000E+00  .000000E+00  .000000E+00  .000000E+00  .000000E+00  .000000E+00  .000000E+00  .000000E+00  .000000E+00  .000000E+00  .000000E+00  .00000E+00  .00000E+00
  .48620E+02  .60000E+02  .54274E-06 -.18134E-02  .000000E+00  .000000E+00  .000000E+00  .000000E+00  .000000E+00  .000000E+00  .000000E+00  .000000E+00  .000000E+00  .000000E+00  .000000E+00  .000000E+00  .000000E+00  .000000E+00  .00000E+00  .00000E+00
  .68620E+02  .60000E+02  .48401E-06 -.18130E-02  .000000E+00  .000000E+00  .000000E+00  .000000E+00  .000000E+00  .000000E+00  .000000E+00  .000000E+00  .000000E+00  .000000E+00  .000000E+00  .000000E+00  .000000E+00  .000000E+00  .00000E+00  .00000E+00
  .88620E+02  .60000E+02  .27316E-06 -.18128E-02  .000000E+00  .000000E+00  .000000E+00  .000000E+00  .000000E+00  .000000E+00  .000000E+00  .000000E+00  .000000E+00  .000000E+00  .000000E+00  .000000E+00  .000000E+00  .000000E+00  .00000E+00  .00000E+00
  .10862E+03  .60000E+02  .00000E+00 -.18127E-02  .000000E+00  .000000E+00  .000000E+00  .000000E+00  .000000E+00  .000000E+00  .000000E+00  .000000E+00  .000000E+00  .000000E+00  .000000E+00  .000000E+00  .000000E+00  .000000E+00  .00000E+00  .00000E+00
  .00000E+00  .80000E+02  .00000E+00 -.24192E-02  .000000E+00  .000000E+00  .000000E+00  .000000E+00  .000000E+00  .000000E+00  .000000E+00  .000000E+00  .000000E+00  .000000E+00  .000000E+00  .000000E+00  .000000E+00  .000000E+00  .00000E+00  .00000E+00
  .13100E+01  .80000E+02  .37987E-07 -.24192E-02  .000000E+00  .000000E+00  .000000E+00  .000000E+00  .000000E+00  .000000E+00  .000000E+00  .000000E+00  .000000E+00  .000000E+00  .000000E+00  .000000E+00  .000000E+00  .000000E+00  .00000E+00  .00000E+00
  .26200E+01  .80000E+02  .75922E-07 -.24192E-02  .000000E+00  .000000E+00  .000000E+00  .000000E+00  .000000E+00  .000000E+00  .000000E+00  .000000E+00  .000000E+00  .000000E+00  .000000E+00  .000000E+00  .000000E+00  .000000E+00  .00000E+00  .00000E+00
  .41200E+01  .80000E+02  .11928E-06 -.24192E-02  .000000E+00  .000000E+00  .000000E+00  .000000E+00  .000000E+00  .000000E+00  .000000E+00  .000000E+00  .000000E+00  .000000E+00  .000000E+00  .000000E+00  .000000E+00  .000000E+00  .00000E+00  .00000E+00
  .56200E+01  .80000E+02  .16244E-06 -.24192E-02  .000000E+00  .000000E+00  .000000E+00  .000000E+00  .000000E+00  .000000E+00  .000000E+00  .000000E+00  .000000E+00  .000000E+00  .000000E+00  .000000E+00  .000000E+00  .000000E+00  .00000E+00  .00000E+00
  .71200E+01  .80000E+02  .20518E-06 -.24192E-02  .000000E+00  .000000E+00  .000000E+00  .000000E+00  .000000E+00  .000000E+00  .000000E+00  .000000E+00  .000000E+00  .000000E+00  .000000E+00  .000000E+00  .000000E+00  .000000E+00  .00000E+00  .00000E+00
  .86200E+01  .80000E+02  .24757E-06 -.24192E-02  .000000E+00  .000000E+00  .000000E+00  .000000E+00  .000000E+00  .000000E+00  .000000E+00  .000000E+00  .000000E+00  .000000E+00  .000000E+00  .000000E+00  .000000E+00  .000000E+00  .00000E+00  .00000E+00
  .11120E+02  .80000E+02  .31675E-06 -.24191E-02  .000000E+00  .000000E+00  .000000E+00  .000000E+00  .000000E+00  .000000E+00  .000000E+00  .000000E+00  .000000E+00  .000000E+00  .000000E+00  .000000E+00  .000000E+00  .000000E+00  .00000E+00  .00000E+00
  .13620E+02  .80000E+02  .38434E-06 -.24191E-02  .000000E+00  .000000E+00  .000000E+00  .000000E+00  .000000E+00  .000000E+00  .000000E+00  .000000E+00  .000000E+00  .000000E+00  .000000E+00  .000000E+00  .000000E+00  .000000E+00  .00000E+00  .00000E+00
  .17620E+02  .80000E+02  .48714E-06 -.24190E-02  .000000E+00  .000000E+00  .000000E+00  .000000E+00  .000000E+00  .000000E+00  .000000E+00  .000000E+00  .000000E+00  .000000E+00  .000000E+00  .000000E+00  .000000E+00  .000000E+00  .00000E+00  .00000E+00
  .21620E+02  .80000E+02  .58342E-06 -.24190E-02  .000000E+00  .000000E+00  .000000E+00  .000000E+00  .000000E+00  .000000E+00  .000000E+00  .000000E+00  .000000E+00  .000000E+00  .000000E+00  .000000E+00  .000000E+00  .000000E+00  .00000E+00  .00000E+00
  .27620E+02  .80000E+02  .70962E-06 -.24188E-02  .000000E+00  .000000E+00  .000000E+00  .000000E+00  .000000E+00  .000000E+00  .000000E+00  .000000E+00  .000000E+00  .000000E+00  .000000E+00  .000000E+00  .000000E+00  .000000E+00  .00000E+00  .00000E+00
  .33620E+02  .80000E+02  .81493E-06 -.24186E-02  .000000E+00  .000000E+00  .000000E+00  .000000E+00  .000000E+00  .000000E+00  .000000E+00  .000000E+00  .000000E+00  .000000E+00  .000000E+00  .000000E+00  .000000E+00  .000000E+00  .00000E+00  .00000E+00
  .41120E+02  .80000E+02  .90512E-06 -.24184E-02  .000000E+00  .000000E+00  .000000E+00  .000000E+00  .000000E+00  .000000E+00  .000000E+00  .000000E+00  .000000E+00  .000000E+00  .000000E+00  .000000E+00  .000000E+00  .000000E+00  .00000E+00  .00000E+00
  .48620E+02  .80000E+02  .95445E-06 -.24181E-02  .000000E+00  .000000E+00  .000000E+00  .000000E+00  .000000E+00  .000000E+00  .000000E+00  .000000E+00  .000000E+00  .000000E+00  .000000E+00  .000000E+00  .000000E+00  .000000E+00  .00000E+00  .00000E+00
  .58620E+02  .80000E+02  .93870E-06 -.24177E-02  .000000E+00  .000000E+00  .000000E+00  .000000E+00  .000000E+00  .000000E+00  .000000E+00  .000000E+00  .000000E+00  .000000E+00  .000000E+00  .000000E+00  .000000E+00  .000000E+00  .00000E+00  .00000E+00
  .68620E+02  .80000E+02  .85181E-06 -.24174E-02  .000000E+00  .000000E+00  .000000E+00  .000000E+00  .000000E+00  .000000E+00  .000000E+00  .000000E+00  .000000E+00  .000000E+00  .000000E+00  .000000E+00  .000000E+00  .000000E+00  .00000E+00  .00000E+00
  .78620E+02  .80000E+02  .68796E-06 -.24171E-02  .000000E+00  .000000E+00  .000000E+00  .000000E+00  .000000E+00  .000000E+00  .000000E+00  .000000E+00  .000000E+00  .000000E+00  .000000E+00  .000000E+00  .000000E+00  .000000E+00  .00000E+00  .00000E+00
  .88620E+02  .80000E+02  .47955E-06 -.24168E-02  .000000E+00  .000000E+00  .000000E+00  .000000E+00  .000000E+00  .000000E+00  .000000E+00  .000000E+00  .000000E+00  .000000E+00  .000000E+00  .000000E+00  .000000E+00  .000000E+00  .00000E+00  .00000E+00
  .98620E+02  .80000E+02  .24092E-06 -.24167E-02  .000000E+00  .000000E+00  .000000E+00  .000000E+00  .000000E+00  .000000E+00  .000000E+00  .000000E+00  .000000E+00  .000000E+00  .000000E+00  .000000E+00  .000000E+00  .000000E+00  .00000E+00  .00000E+00
  .10862E+03  .80000E+02  .00000E+00 -.24166E-02  .000000E+00  .000000E+00  .000000E+00  .000000E+00  .000000E+00  .000000E+00  .000000E+00  .000000E+00  .000000E+00  .000000E+00  .000000E+00  .000000E+00  .000000E+00  .000000E+00  .00000E+00  .00000E+00
  .00000E+00  .10000E+03  .00000E+00 -.30252E-02  .000000E+00  .000000E+00  .000000E+00  .000000E+00  .000000E+00  .000000E+00  .000000E+00  .000000E+00  .000000E+00  .000000E+00  .000000E+00  .000000E+00  .000000E+00  .000000E+00  .00000E+00  .00000E+00
  .26200E+01  .10000E+03  .14909E-06 -.30252E-02  .000000E+00  .000000E+00  .000000E+00  .000000E+00  .000000E+00  .000000E+00  .000000E+00  .000000E+00  .000000E+00  .000000E+00  .000000E+00  .000000E+00  .000000E+00  .000000E+00  .00000E+00  .00000E+00
  .56200E+01  .10000E+03  .31843E-06 -.30252E-02  .000000E+00  .000000E+00  .000000E+00  .000000E+00  .000000E+00  .000000E+00  .000000E+00  .000000E+00  .000000E+00  .000000E+00  .000000E+00  .000000E+00  .000000E+00  .000000E+00  .00000E+00  .00000E+00
  .86200E+01  .10000E+03  .48527E-06 -.30252E-02  .000000E+00  .000000E+00  .000000E+00  .000000E+00  .000000E+00  .000000E+00  .000000E+00  .000000E+00  .000000E+00  .000000E+00  .000000E+00  .000000E+00  .000000E+00  .000000E+00  .00000E+00  .00000E+00
  .13620E+02  .10000E+03  .75410E-06 -.30250E-02  .000000E+00  .000000E+00  .000000E+00  .000000E+00  .000000E+00  .000000E+00  .000000E+00  .000000E+00  .000000E+00  .000000E+00  .000000E+00  .000000E+00  .000000E+00  .000000E+00  .00000E+00  .00000E+00
  .21620E+02  .10000E+03  .11457E-05 -.30248E-02  .000000E+00  .000000E+00  .000000E+00  .000000E+00  .000000E+00  .000000E+00  .000000E+00  .000000E+00  .000000E+00  .000000E+00  .000000E+00  .000000E+00  .000000E+00  .000000E+00  .00000E+00  .00000E+00
  .33620E+02  .10000E+03  .16008E-05 -.30241E-02  .000000E+00  .000000E+00  .000000E+00  .000000E+00  .000000E+00  .000000E+00  .000000E+00  .000000E+00  .000000E+00  .000000E+00  .000000E+00  .000000E+00  .000000E+00  .000000E+00  .00000E+00  .00000E+00
  .48620E+02  .10000E+03  .18728E-05 -.30231E-02  .000000E+00  .000000E+00  .000000E+00  .000000E+00  .000000E+00  .000000E+00  .000000E+00  .000000E+00  .000000E+00  .000000E+00  .000000E+00  .000000E+00  .000000E+00  .000000E+00  .00000E+00  .00000E+00
  .68620E+02  .10000E+03  .16694E-05 -.30217E-02  .000000E+00  .000000E+00  .000000E+00  .000000E+00  .000000E+00  .000000E+00  .000000E+00  .000000E+00  .000000E+00  .000000E+00  .000000E+00  .000000E+00  .000000E+00  .000000E+00  .00000E+00  .00000E+00
  .88620E+02  .10000E+03  .94215E-06 -.30207E-02  .000000E+00  .000000E+00  .000000E+00  .000000E+00  .000000E+00  .000000E+00  .000000E+00  .000000E+00  .000000E+00  .000000E+00  .000000E+00  .000000E+00  .000000E+00  .000000E+00  .00000E+00  .00000E+00
  .10862E+03  .10000E+03  .00000E+00 -.30203E-02  .000000E+00  .000000E+00  .000000E+00  .000000E+00  .000000E+00  .000000E+00  .000000E+00  .000000E+00  .000000E+00  .000000E+00  .000000E+00  .000000E+00  .000000E+00  .000000E+00  .00000E+00  .00000E+00
  .00000E+00  .12000E+03  .00000E+00 -.36328E-02  .000000E+00  .000000E+00  .000000E+00  .000000E+00  .000000E+00  .000000E+00  .000000E+00  .000000E+00  .000000E+00  .000000E+00  .000000E+00  .000000E+00  .000000E+00  .000000E+00  .00000E+00  .00000E+00
  .13100E+01  .12000E+03  .13409E-06 -.36328E-02  .000000E+00  .000000E+00  .000000E+00  .000000E+00  .000000E+00  .000000E+00  .000000E+00  .000000E+00  .000000E+00  .000000E+00  .000000E+00  .000000E+00  .000000E+00  .000000E+00  .00000E+00  .00000E+00
  .26200E+01  .12000E+03  .26797E-06 -.36328E-02  .000000E+00  .000000E+00  .000000E+00  .000000E+00  .000000E+00  .000000E+00  .000000E+00  .000000E+00  .000000E+00  .000000E+00  .000000E+00  .000000E+00  .000000E+00  .000000E+00  .00000E+00  .00000E+00
  .41200E+01  .12000E+03  .42058E-06 -.36327E-02  .000000E+00  .000000E+00  .000000E+00  .000000E+00  .000000E+00  .000000E+00  .000000E+00  .000000E+00  .000000E+00  .000000E+00  .000000E+00  .000000E+00  .000000E+00  .000000E+00  .00000E+00  .00000E+00
  .56200E+01  .12000E+03  .57239E-06 -.36327E-02  .000000E+00  .000000E+00  .000000E+00  .000000E+00  .000000E+00  .000000E+00  .000000E+00  .000000E+00  .000000E+00  .000000E+00  .000000E+00  .000000E+00  .000000E+00  .000000E+00  .00000E+00  .00000E+00
  .71200E+01  .12000E+03  .72292E-06 -.36327E-02  .000000E+00  .000000E+00  .000000E+00  .000000E+00  .000000E+00  .000000E+00  .000000E+00  .000000E+00  .000000E+00  .000000E+00  .000000E+00  .000000E+00  .000000E+00  .000000E+00  .00000E+00  .00000E+00
  .86200E+01  .12000E+03  .87206E-06 -.36326E-02  .000000E+00  .000000E+00  .000000E+00  .000000E+00  .000000E+00  .000000E+00  .000000E+00  .000000E+00  .000000E+00  .000000E+00  .000000E+00  .000000E+00  .000000E+00  .000000E+00  .00000E+00  .00000E+00
  .11120E+02  .12000E+03  .11162E-05 -.36325E-02  .000000E+00  .000000E+00  .000000E+00  .000000E+00  .000000E+00  .000000E+00  .000000E+00  .000000E+00  .000000E+00  .000000E+00  .000000E+00  .000000E+00  .000000E+00  .000000E+00  .00000E+00  .00000E+00
  .13620E+02  .12000E+03  .13545E-05 -.36324E-02  .000000E+00  .000000E+00  .000000E+00  .000000E+00  .000000E+00  .000000E+00  .000000E+00  .000000E+00  .000000E+00  .000000E+00  .000000E+00  .000000E+00  .000000E+00  .000000E+00  .00000E+00  .00000E+00
  .17620E+02  .12000E+03  .17174E-05 -.36322E-02  .000000E+00  .000000E+00  .000000E+00  .000000E+00  .000000E+00  .000000E+00  .000000E+00  .000000E+00  .000000E+00  .000000E+00  .000000E+00  .000000E+00  .000000E+00  .000000E+00  .00000E+00  .00000E+00
  .21620E+02  .12000E+03  .20572E-05 -.36319E-02  .000000E+00  .000000E+00  .000000E+00  .000000E+00  .000000E+00  .000000E+00  .000000E+00  .000000E+00  .000000E+00  .000000E+00  .000000E+00  .000000E+00  .000000E+00  .000000E+00  .00000E+00  .00000E+00
  .27620E+02  .12000E+03  .25033E-05 -.36313E-02  .000000E+00  .000000E+00  .000000E+00  .000000E+00  .000000E+00  .000000E+00  .000000E+00  .000000E+00  .000000E+00  .000000E+00  .000000E+00  .000000E+00  .000000E+00  .000000E+00  .00000E+00  .00000E+00
  .33620E+02  .12000E+03  .28742E-05 -.36306E-02  .000000E+00  .000000E+00  .000000E+00  .000000E+00  .000000E+00  .000000E+00  .000000E+00  .000000E+00  .000000E+00  .000000E+00  .000000E+00  .000000E+00  .000000E+00  .000000E+00  .00000E+00  .00000E+00
  .41120E+02  .12000E+03  .31934E-05 -.36297E-02  .000000E+00  .000000E+00  .000000E+00  .000000E+00  .000000E+00  .000000E+00  .000000E+00  .000000E+00  .000000E+00  .000000E+00  .000000E+00  .000000E+00  .000000E+00  .000000E+00  .00000E+00  .00000E+00
  .48620E+02  .12000E+03  .33671E-05 -.36287E-02  .000000E+00  .000000E+00  .000000E+00  .000000E+00  .000000E+00  .000000E+00  .000000E+00  .000000E+00  .000000E+00  .000000E+00  .000000E+00  .000000E+00  .000000E+00  .000000E+00  .00000E+00  .00000E+00
  .58620E+02  .12000E+03  .33116E-05 -.36273E-02  .000000E+00  .000000E+00  .000000E+00  .000000E+00  .000000E+00  .000000E+00  .000000E+00  .000000E+00  .000000E+00  .000000E+00  .000000E+00  .000000E+00  .000000E+00  .000000E+00  .00000E+00  .00000E+00
  .68620E+02  .12000E+03  .30039E-05 -.36260E-02  .000000E+00  .000000E+00  .000000E+00  .000000E+00  .000000E+00  .000000E+00  .000000E+00  .000000E+00  .000000E+00  .000000E+00  .000000E+00  .000000E+00  .000000E+00  .000000E+00  .00000E+00  .00000E+00
  .78620E+02  .12000E+03  .24264E-05 -.36249E-02  .000000E+00  .000000E+00  .000000E+00  .000000E+00  .000000E+00  .000000E+00  .000000E+00  .000000E+00  .000000E+00  .000000E+00  .000000E+00  .000000E+00  .000000E+00  .000000E+00  .00000E+00  .00000E+00
  .88620E+02  .12000E+03  .16914E-05 -.36240E-02  .000000E+00  .000000E+00  .000000E+00  .000000E+00  .000000E+00  .000000E+00  .000000E+00  .000000E+00  .000000E+00  .000000E+00  .000000E+00  .000000E+00  .000000E+00  .000000E+00  .00000E+00  .00000E+00