 TITLE = "Test Section for the Analysis of BOEING 777-200A Wheel Load                     "
 VARIABLES = "R","Z","DISP_R","DISP_Z","EPSR","EPSTH","EPSZ","EPSRZ","SIGMAR","SIGMATH","SIGMAZ","SIGMARZ","SIGMA1","SIGMA2","SIGMA3","E_VERT","E_HORIZ","G_MOD","MRRATIO","G_RATIO"
 ZONE T="GEOM & DISP 1", N=  533, E=  160, F=FEPOINT, ET=QUADRILATERAL
  .00000E+00  .00000E+00  .00000E+00  .00000E+00  .000000E+00  .000000E+00  .000000E+00  .000000E+00  .000000E+00  .000000E+00  .000000E+00  .000000E+00  .000000E+00  .000000E+00  .000000E+00  .000000E+00  .000000E+00  .000000E+00  .00000E+00  .00000E+00
  .13100E+01  .00000E+00  .00000E+00  .00000E+00  .000000E+00  .000000E+00  .000000E+00  .000000E+00  .000000E+00  .000000E+00  .000000E+00  .000000E+00  .000000E+00  .000000E+00  .000000E+00  .000000E+00  .000000E+00  .000000E+00  .00000E+00  .00000E+00
  .26200E+01  .00000E+00  .00000E+00  .00000E+00  .000000E+00  .000000E+00  .000000E+00  .000000E+00  .000000E+00  .000000E+00  .000000E+00  .000000E+00  .000000E+00  .000000E+00  .000000E+00  .000000E+00  .000000E+00  .000000E+00  .00000E+00  .00000E+00
  .41200E+01  .00000E+00  .00000E+00  .00000E+00  .000000E+00  .000000E+00  .000000E+00  .000000E+00  .000000E+00  .000000E+00  .000000E+00  .000000E+00  .000000E+00  .000000E+00  .000000E+00  .000000E+00  .000000E+00  .000000E+00  .00000E+00  .00000E+00
  .56200E+01  .00000E+00  .00000E+00  .00000E+00  .000000E+00  .000000E+00  .000000E+00  .000000E+00  .000000E+00  .000000E+00  .000000E+00  .000000E+00  .000000E+00  .000000E+00  .000000E+00  .000000E+00  .000000E+00  .000000E+00  .00000E+00  .00000E+00
  .71200E+01  .00000E+00  .00000E+00  .00000E+00  .000000E+00  .000000E+00  .000000E+00  .000000E+00  .000000E+00  .000000E+00  .000000E+00  .000000E+00  .000000E+00  .000000E+00  .000000E+00  .000000E+00  .000000E+00  .000000E+00  .00000E+00  .00000E+00
  .86200E+01  .00000E+00  .00000E+00  .00000E+00  .000000E+00  .000000E+00  .000000E+00  .000000E+00  .000000E+00  .000000E+00  .000000E+00  .000000E+00  .000000E+00  .000000E+00  .000000E+00  .000000E+00  .000000E+00  .000000E+00  .00000E+00  .00000E+00
  .11120E+02  .00000E+00  .00000E+00  .00000E+00  .000000E+00  .000000E+00  .000000E+00  .000000E+00  .000000E+00  .000000E+00  .000000E+00  .000000E+00  .000000E+00  .000000E+00  .000000E+00  .000000E+00  .000000E+00  .000000E+00  .00000E+00  .00000E+00
  .13620E+02  .00000E+00  .00000E+00  .00000E+00  .000000E+00  .000000E+00  .000000E+00  .000000E+00  .000000E+00  .000000E+00  .000000E+00  .000000E+00  .000000E+00  .000000E+00  .000000E+00  .000000E+00  .000000E+00  .000000E+00  .00000E+00  .00000E+00
  .17620E+02  .00000E+00  .00000E+00  .00000E+00  .000000E+00  .000000E+00  .000000E+00  .000000E+00  .000000E+00  .000000E+00  .000000E+00  .000000E+00  .000000E+00  .000000E+00  .000000E+00  .000000E+00  .000000E+00  .000000E+00  .00000E+00  .00000E+00
  .21620E+02  .00000E+00  .00000E+00  .00000E+00  .000000E+00  .000000E+00  .000000E+00  .000000E+00  .000000E+00  .000000E+00  .000000E+00  .000000E+00  .000000E+00  .000000E+00  .000000E+00  .000000E+00  .000000E+00  .000000E+00  .00000E+00  .00000E+00
  .27620E+02  .00000E+00  .00000E+00  .00000E+00  .000000E+00  .000000E+00  .000000E+00  .000000E+00  .000000E+00  .000000E+00  .000000E+00  .000000E+00  .000000E+00  .000000E+00  .000000E+00  .000000E+00  .000000E+00  .000000E+00  .00000E+00  .00000E+00
  .33620E+02  .00000E+00  .00000E+00  .00000E+00  .000000E+00  .000000E+00  .000000E+00  .000000E+00  .000000E+00  .000000E+00  .000000E+00  .000000E+00  .000000E+00  .000000E+00  .000000E+00  .000000E+00  .000000E+00  .000000E+00  .00000E+00  .00000E+00
  .41120E+02  .00000E+00  .00000E+00  .00000E+00  .000000E+00  .000000E+00  .000000E+00  .000000E+00  .000000E+00  .000000E+00  .000000E+00  .000000E+00  .000000E+00  .000000E+00  .000000E+00  .000000E+00  .000000E+00  .000000E+00  .00000E+00  .00000E+00
  .48620E+02  .00000E+00  .00000E+00  .00000E+00  .000000E+00  .000000E+00  .000000E+00  .000000E+00  .000000E+00  .000000E+00  .000000E+00  .000000E+00  .000000E+00  .000000E+00  .000000E+00  .000000E+00  .000000E+00  .000000E+00  .00000E+00  .00000E+00
  .58620E+02  .00000E+00  .00000E+00  .00000E+00  .000000E+00  .000000E+00  .000000E+00  .000000E+00  .000000E+00  .000000E+00  .000000E+00  .000000E+00  .000000E+00  .000000E+00  .000000E+00  .000000E+00  .000000E+00  .000000E+00  .00000E+00  .00000E+00
  .68620E+02  .00000E+00  .00000E+00  .00000E+00  .000000E+00  .000000E+00  .000000E+00  .000000E+00  .000000E+00  .000000E+00  .000000E+00  .000000E+00  .000000E+00  .000000E+00  .000000E+00  .000000E+00  .000000E+00  .000000E+00  .00000E+00  .00000E+00
  .78620E+02  .00000E+00  .00000E+00  .00000E+00  .000000E+00  .000000E+00  .000000E+00  .000000E+00  .000000E+00  .000000E+00  .000000E+00  .000000E+00  .000000E+00  .000000E+00  .000000E+00  .000000E+00  .000000E+00  .000000E+00  .00000E+00  .00000E+00
  .88620E+02  .00000E+00  .00000E+00  .00000E+00  .000000E+00  .000000E+00  .000000E+00  .000000E+00  .000000E+00  .000000E+00  .000000E+00  .000000E+00  .000000E+00  .000000E+00  .000000E+00  .000000E+00  .000000E+00  .000000E+00  .00000E+00  .00000E+00
  .98620E+02  .00000E+00  .00000E+00  .00000E+00  .000000E+00  .000000E+00  .000000E+00  .000000E+00  .000000E+00  .000000E+00  .000000E+00  .000000E+00  .000000E+00  .000000E+00  .000000E+00  .000000E+00  .000000E+00  .000000E+00  .00000E+00  .00000E+00
  .10862E+03  .00000E+00  .00000E+00  .00000E+00  .000000E+00  .000000E+00  .000000E+00  .000000E+00  .000000E+00  .000000E+00  .000000E+00  .000000E+00  .000000E+00  .000000E+00  .000000E+00  .000000E+00  .000000E+00  .000000E+00  .00000E+00  .00000E+00
  .00000E+00  .20000E+02  .00000E+00 -.60460E-03  .000000E+00  .000000E+00  .000000E+00  .000000E+00  .000000E+00  .000000E+00  .000000E+00  .000000E+00  .000000E+00  .000000E+00  .000000E+00  .000000E+00  .000000E+00  .000000E+00  .00000E+00  .00000E+00
  .26200E+01  .20000E+02  .16555E-07 -.60460E-03  .000000E+00  .000000E+00  .000000E+00  .000000E+00  .000000E+00  .000000E+00  .000000E+00  .000000E+00  .000000E+00  .000000E+00  .000000E+00  .000000E+00  .000000E+00  .000000E+00  .00000E+00  .00000E+00
  .56200E+01  .20000E+02  .35412E-07 -.60460E-03  .000000E+00  .000000E+00  .000000E+00  .000000E+00  .000000E+00  .000000E+00  .000000E+00  .000000E+00  .000000E+00  .000000E+00  .000000E+00  .000000E+00  .000000E+00  .000000E+00  .00000E+00  .00000E+00
  .86200E+01  .20000E+02  .53965E-07 -.60460E-03  .000000E+00  .000000E+00  .000000E+00  .000000E+00  .000000E+00  .000000E+00  .000000E+00  .000000E+00  .000000E+00  .000000E+00  .000000E+00  .000000E+00  .000000E+00  .000000E+00  .00000E+00  .00000E+00
  .13620E+02  .20000E+02  .83757E-07 -.60459E-03  .000000E+00  .000000E+00  .000000E+00  .000000E+00  .000000E+00  .000000E+00  .000000E+00  .000000E+00  .000000E+00  .000000E+00  .000000E+00  .000000E+00  .000000E+00  .000000E+00  .00000E+00  .00000E+00
  .21620E+02  .20000E+02  .12696E-06 -.60458E-03  .000000E+00  .000000E+00  .000000E+00  .000000E+00  .000000E+00  .000000E+00  .000000E+00  .000000E+00  .000000E+00  .000000E+00  .000000E+00  .000000E+00  .000000E+00  .000000E+00  .00000E+00  .00000E+00
  .33620E+02  .20000E+02  .17707E-06 -.60455E-03  .000000E+00  .000000E+00  .000000E+00  .000000E+00  .000000E+00  .000000E+00  .000000E+00  .000000E+00  .000000E+00  .000000E+00  .000000E+00  .000000E+00  .000000E+00  .000000E+00  .00000E+00  .00000E+00
  .48620E+02  .20000E+02  .20695E-06 -.60450E-03  .000000E+00  .000000E+00  .000000E+00  .000000E+00  .000000E+00  .000000E+00  .000000E+00  .000000E+00  .000000E+00  .000000E+00  .000000E+00  .000000E+00  .000000E+00  .000000E+00  .00000E+00  .00000E+00
  .68620E+02  .20000E+02  .18431E-06 -.60444E-03  .000000E+00  .000000E+00  .000000E+00  .000000E+00  .000000E+00  .000000E+00  .000000E+00  .000000E+00  .000000E+00  .000000E+00  .000000E+00  .000000E+00  .000000E+00  .000000E+00  .00000E+00  .00000E+00
  .88620E+02  .20000E+02  .10397E-06 -.60439E-03  .000000E+00  .000000E+00  .000000E+00  .000000E+00  .000000E+00  .000000E+00  .000000E+00  .000000E+00  .000000E+00  .000000E+00  .000000E+00  .000000E+00  .000000E+00  .000000E+00  .00000E+00  .00000E+00
  .10862E+03  .20000E+02  .00000E+00 -.60437E-03  .000000E+00  .000000E+00  .000000E+00  .000000E+00  .000000E+00  .000000E+00  .000000E+00  .000000E+00  .000000E+00  .000000E+00  .000000E+00  .000000E+00  .000000E+00  .000000E+00  .00000E+00  .00000E+00
  .00000E+00  .40000E+02  .00000E+00 -.12094E-02  .000000E+00  .000000E+00  .000000E+00  .000000E+00  .000000E+00  .000000E+00  .000000E+00  .000000E+00  .000000E+00  .000000E+00  .000000E+00  .000000E+00  .000000E+00  .000000E+00  .00000E+00  .00000E+00
  .13100E+01  .40000E+02  .15919E-07 -.12094E-02  .000000E+00  .000000E+00  .000000E+00  .000000E+00  .000000E+00  .000000E+00  .000000E+00  .000000E+00  .000000E+00  .000000E+00  .000000E+00  .000000E+00  .000000E+00  .000000E+00  .00000E+00  .00000E+00
  .26200E+01  .40000E+02  .31815E-07 -.12094E-02  .000000E+00  .000000E+00  .000000E+00  .000000E+00  .000000E+00  .000000E+00  .000000E+00  .000000E+00  .000000E+00  .000000E+00  .000000E+00  .000000E+00  .000000E+00  .000000E+00  .00000E+00  .00000E+00
  .41200E+01  .40000E+02  .49981E-07 -.12094E-02  .000000E+00  .000000E+00  .000000E+00  .000000E+00  .000000E+00  .000000E+00  .000000E+00  .000000E+00  .000000E+00  .000000E+00  .000000E+00  .000000E+00  .000000E+00  .000000E+00  .00000E+00  .00000E+00
  .56200E+01  .40000E+02  .68041E-07 -.12094E-02  .000000E+00  .000000E+00  .000000E+00  .000000E+00  .000000E+00  .000000E+00  .000000E+00  .000000E+00  .000000E+00  .000000E+00  .000000E+00  .000000E+00  .000000E+00  .000000E+00  .00000E+00  .00000E+00
  .71200E+01  .40000E+02  .85972E-07 -.12094E-02  .000000E+00  .000000E+00  .000000E+00  .000000E+00  .000000E+00  .000000E+00  .000000E+00  .000000E+00  .000000E+00  .000000E+00  .000000E+00  .000000E+00  .000000E+00  .000000E+00  .00000E+00  .00000E+00
  .86200E+01  .40000E+02  .10372E-06 -.12094E-02  .000000E+00  .000000E+00  .000000E+00  .000000E+00  .000000E+00  .000000E+00  .000000E+00  .000000E+00  .000000E+00  .000000E+00  .000000E+00  .000000E+00  .000000E+00  .000000E+00  .00000E+00  .00000E+00
  .11120E+02  .40000E+02  .13279E-06 -.12094E-02  .000000E+00  .000000E+00  .000000E+00  .000000E+00  .000000E+00  .000000E+00  .000000E+00  .000000E+00  .000000E+00  .000000E+00  .000000E+00  .000000E+00  .000000E+00  .000000E+00  .00000E+00  .00000E+00
  .13620E+02  .40000E+02  .16111E-06 -.12094E-02  .000000E+00  .000000E+00  .000000E+00  .000000E+00  .000000E+00  .000000E+00  .000000E+00  .000000E+00  .000000E+00  .000000E+00  .000000E+00  .000000E+00  .000000E+00  .000000E+00  .00000E+00  .00000E+00
  .17620E+02  .40000E+02  .20437E-06 -.12094E-02  .000000E+00  .000000E+00  .000000E+00  .000000E+00  .000000E+00  .000000E+00  .000000E+00  .000000E+00  .000000E+00  .000000E+00  .000000E+00  .000000E+00  .000000E+00  .000000E+00  .00000E+00  .00000E+00
  .21620E+02  .40000E+02  .24473E-06 -.12094E-02  .000000E+00  .000000E+00  .000000E+00  .000000E+00  .000000E+00  .000000E+00  .000000E+00  .000000E+00  .000000E+00  .000000E+00  .000000E+00  .000000E+00  .000000E+00  .000000E+00  .00000E+00  .00000E+00
  .27620E+02  .40000E+02  .29807E-06 -.12093E-02  .000000E+00  .000000E+00  .000000E+00  .000000E+00  .000000E+00  .000000E+00  .000000E+00  .000000E+00  .000000E+00  .000000E+00  .000000E+00  .000000E+00  .000000E+00  .000000E+00  .00000E+00  .00000E+00
  .33620E+02  .40000E+02  .34194E-06 -.12093E-02  .000000E+00  .000000E+00  .000000E+00  .000000E+00  .000000E+00  .000000E+00  .000000E+00  .000000E+00  .000000E+00  .000000E+00  .000000E+00  .000000E+00  .000000E+00  .000000E+00  .00000E+00  .00000E+00
  .41120E+02  .40000E+02  .38042E-06 -.12092E-02  .000000E+00  .000000E+00  .000000E+00  .000000E+00  .000000E+00  .000000E+00  .000000E+00  .000000E+00  .000000E+00  .000000E+00  .000000E+00  .000000E+00  .000000E+00  .000000E+00  .00000E+00  .00000E+00
  .48620E+02  .40000E+02  .40058E-06 -.12091E-02  .000000E+00  .000000E+00  .000000E+00  .000000E+00  .000000E+00  .000000E+00  .000000E+00  .000000E+00  .000000E+00  .000000E+00  .000000E+00  .000000E+00  .000000E+00  .000000E+00  .00000E+00  .00000E+00
  .58620E+02  .40000E+02  .39493E-06 -.12090E-02  .000000E+00  .000000E+00  .000000E+00  .000000E+00  .000000E+00  .000000E+00  .000000E+00  .000000E+00  .000000E+00  .000000E+00  .000000E+00  .000000E+00  .000000E+00  .000000E+00  .00000E+00  .00000E+00
  .68620E+02  .40000E+02  .35743E-06 -.12089E-02  .000000E+00  .000000E+00  .000000E+00  .000000E+00  .000000E+00  .000000E+00  .000000E+00  .000000E+00  .000000E+00  .000000E+00  .000000E+00  .000000E+00  .000000E+00  .000000E+00  .00000E+00  .00000E+00
  .78620E+02  .40000E+02  .28923E-06 -.12088E-02  .000000E+00  .000000E+00  .000000E+00  .000000E+00  .000000E+00  .000000E+00  .000000E+00  .000000E+00  .000000E+00  .000000E+00  .000000E+00  .000000E+00  .000000E+00  .000000E+00  .00000E+00  .00000E+00
  .88620E+02  .40000E+02  .20118E-06 -.12087E-02  .000000E+00  .000000E+00  .000000E+00  .000000E+00  .000000E+00  .000000E+00  .000000E+00  .000000E+00  .000000E+00  .000000E+00  .000000E+00  .000000E+00  .000000E+00  .000000E+00  .00000E+00  .00000E+00
  .98620E+02  .40000E+02  .10105E-06 -.12087E-02  .000000E+00  .000000E+00  .000000E+00  .000000E+00  .000000E+00  .000000E+00  .000000E+00  .000000E+00  .000000E+00  .000000E+00  .000000E+00  .000000E+00  .000000E+00  .000000E+00  .00000E+00  .00000E+00
  .10862E+03  .40000E+02  .00000E+00 -.12087E-02  .000000E+00  .000000E+00  .000000E+00  .000000E+00  .000000E+00  .000000E+00  .000000E+00  .000000E+00  .000000E+00  .000000E+00  .000000E+00  .000000E+00  .000000E+00  .000000E+00  .00000E+00  .00000E+00
  .00000E+00  .60000E+02  .00000E+00 -.18146E-02  .000000E+00  .000000E+00  .000000E+00  .000000E+00  .000000E+00  .000000E+00  .000000E+00  .000000E+00  .000000E+00  .000000E+00  .000000E+00  .000000E+00  .000000E+00  .000000E+00  .00000E+00  .00000E+00
  .26200E+01  .60000E+02  .59902E-07 -.18146E-02  .000000E+00  .000000E+00  .000000E+00  .000000E+00  .000000E+00  .000000E+00  .000000E+00  .000000E+00  .000000E+00  .000000E+00  .000000E+00  .000000E+00  .000000E+00  .000000E+00  .00000E+00  .00000E+00
  .56200E+01  .60000E+02  .12792E-06 -.18146E-02  .000000E+00  .000000E+00  .000000E+00  .000000E+00  .000000E+00  .000000E+00  .000000E+00  .000000E+00  .000000E+00  .000000E+00  .000000E+00  .000000E+00  .000000E+00  .000000E+00  .00000E+00  .00000E+00
  .86200E+01  .60000E+02  .19484E-06 -.18145E-02  .000000E+00  .000000E+00  .000000E+00  .000000E+00  .000000E+00  .000000E+00  .000000E+00  .000000E+00  .000000E+00  .000000E+00  .000000E+00  .000000E+00  .000000E+00  .000000E+00  .00000E+00  .00000E+00
  .13620E+02  .60000E+02  .30258E-06 -.18145E-02  .000000E+00  .000000E+00  .000000E+00  .000000E+00  .000000E+00  .000000E+00  .000000E+00  .000000E+00  .000000E+00  .000000E+00  .000000E+00  .000000E+00  .000000E+00  .000000E+00  .00000E+00  .00000E+00
  .21620E+02  .60000E+02  .45979E-06 -.18144E-02  .000000E+00  .000000E+00  .000000E+00  .000000E+00  .000000E+00  .000000E+00  .000000E+00  .000000E+00  .000000E+00  .000000E+00  .000000E+00  .000000E+00  .000000E+00  .000000E+00  .00000E+00  .00000E+00
  .33620E+02  .60000E+02  .64248E-06 -.18142E-02  .000000E+00  .000000E+00  .000000E+00  .000000E+00  .000000E+00  .000000E+00  .000000E+00  .000000E+00  .000000E+00  .000000E+00  .000000E+00  .000000E+00  .000000E+00  .000000E+00  .00000E+00  .00000E+00
  .48620E+02  .60000E+02  .75158E-06 -.18138E-02  .000000E+00  .000000E+00  .000000E+00  .000000E+00  .000000E+00  .000000E+00  .000000E+00  .000000E+00  .000000E+00  .000000E+00  .000000E+00  .000000E+00  .000000E+00  .000000E+00  .00000E+00  .00000E+00
  .68620E+02  .60000E+02  .66995E-06 -.18133E-02  .000000E+00  .000000E+00  .000000E+00  .000000E+00  .000000E+00  .000000E+00  .000000E+00  .000000E+00  .000000E+00  .000000E+00  .000000E+00  .000000E+00  .000000E+00  .000000E+00  .00000E+00  .00000E+00
  .88620E+02  .60000E+02  .37800E-06 -.18129E-02  .000000E+00  .000000E+00  .000000E+00  .000000E+00  .000000E+00  .000000E+00  .000000E+00  .000000E+00  .000000E+00  .000000E+00  .000000E+00  .000000E+00  .000000E+00  .000000E+00  .00000E+00  .00000E+00
  .10862E+03  .60000E+02  .00000E+00 -.18128E-02  .000000E+00  .000000E+00  .000000E+00  .000000E+00  .000000E+00  .000000E+00  .000000E+00  .000000E+00  .000000E+00  .000000E+00  .000000E+00  .000000E+00  .000000E+00  .000000E+00  .00000E+00  .00000E+00
  .00000E+00  .80000E+02  .00000E+00 -.24203E-02  .000000E+00  .000000E+00  .000000E+00  .000000E+00  .000000E+00  .000000E+00  .000000E+00  .000000E+00  .000000E+00  .000000E+00  .000000E+00  .000000E+00  .000000E+00  .000000E+00  .00000E+00  .00000E+00
  .13100E+01  .80000E+02  .52547E-07 -.24203E-02  .000000E+00  .000000E+00  .000000E+00  .000000E+00  .000000E+00  .000000E+00  .000000E+00  .000000E+00  .000000E+00  .000000E+00  .000000E+00  .000000E+00  .000000E+00  .000000E+00  .00000E+00  .00000E+00
  .26200E+01  .80000E+02  .10501E-06 -.24203E-02  .000000E+00  .000000E+00  .000000E+00  .000000E+00  .000000E+00  .000000E+00  .000000E+00  .000000E+00  .000000E+00  .000000E+00  .000000E+00  .000000E+00  .000000E+00  .000000E+00  .00000E+00  .00000E+00
  .41200E+01  .80000E+02  .16492E-06 -.24203E-02  .000000E+00  .000000E+00  .000000E+00  .000000E+00  .000000E+00  .000000E+00  .000000E+00  .000000E+00  .000000E+00  .000000E+00  .000000E+00  .000000E+00  .000000E+00  .000000E+00  .00000E+00  .00000E+00
  .56200E+01  .80000E+02  .22454E-06 -.24203E-02  .000000E+00  .000000E+00  .000000E+00  .000000E+00  .000000E+00  .000000E+00  .000000E+00  .000000E+00  .000000E+00  .000000E+00  .000000E+00  .000000E+00  .000000E+00  .000000E+00  .00000E+00  .00000E+00
  .71200E+01  .80000E+02  .28363E-06 -.24202E-02  .000000E+00  .000000E+00  .000000E+00  .000000E+00  .000000E+00  .000000E+00  .000000E+00  .000000E+00  .000000E+00  .000000E+00  .000000E+00  .000000E+00  .000000E+00  .000000E+00  .00000E+00  .00000E+00
  .86200E+01  .80000E+02  .34220E-06 -.24202E-02  .000000E+00  .000000E+00  .000000E+00  .000000E+00  .000000E+00  .000000E+00  .000000E+00  .000000E+00  .000000E+00  .000000E+00  .000000E+00  .000000E+00  .000000E+00  .000000E+00  .00000E+00  .00000E+00
  .11120E+02  .80000E+02  .43794E-06 -.24202E-02  .000000E+00  .000000E+00  .000000E+00  .000000E+00  .000000E+00  .000000E+00  .000000E+00  .000000E+00  .000000E+00  .000000E+00  .000000E+00  .000000E+00  .000000E+00  .000000E+00  .00000E+00  .00000E+00
  .13620E+02  .80000E+02  .53145E-06 -.24201E-02  .000000E+00  .000000E+00  .000000E+00  .000000E+00  .000000E+00  .000000E+00  .000000E+00  .000000E+00  .000000E+00  .000000E+00  .000000E+00  .000000E+00  .000000E+00  .000000E+00  .00000E+00  .00000E+00
  .17620E+02  .80000E+02  .67364E-06 -.24200E-02  .000000E+00  .000000E+00  .000000E+00  .000000E+00  .000000E+00  .000000E+00  .000000E+00  .000000E+00  .000000E+00  .000000E+00  .000000E+00  .000000E+00  .000000E+00  .000000E+00  .00000E+00  .00000E+00
  .21620E+02  .80000E+02  .80686E-06 -.24199E-02  .000000E+00  .000000E+00  .000000E+00  .000000E+00  .000000E+00  .000000E+00  .000000E+00  .000000E+00  .000000E+00  .000000E+00  .000000E+00  .000000E+00  .000000E+00  .000000E+00  .00000E+00  .00000E+00
  .27620E+02  .80000E+02  .98136E-06 -.24197E-02  .000000E+00  .000000E+00  .000000E+00  .000000E+00  .000000E+00  .000000E+00  .000000E+00  .000000E+00  .000000E+00  .000000E+00  .000000E+00  .000000E+00  .000000E+00  .000000E+00  .00000E+00  .00000E+00
  .33620E+02  .80000E+02  .11269E-05 -.24195E-02  .000000E+00  .000000E+00  .000000E+00  .000000E+00  .000000E+00  .000000E+00  .000000E+00  .000000E+00  .000000E+00  .000000E+00  .000000E+00  .000000E+00  .000000E+00  .000000E+00  .00000E+00  .00000E+00
  .41120E+02  .80000E+02  .12517E-05 -.24191E-02  .000000E+00  .000000E+00  .000000E+00  .000000E+00  .000000E+00  .000000E+00  .000000E+00  .000000E+00  .000000E+00  .000000E+00  .000000E+00  .000000E+00  .000000E+00  .000000E+00  .00000E+00  .00000E+00
  .48620E+02  .80000E+02  .13198E-05 -.24187E-02  .000000E+00  .000000E+00  .000000E+00  .000000E+00  .000000E+00  .000000E+00  .000000E+00  .000000E+00  .000000E+00  .000000E+00  .000000E+00  .000000E+00  .000000E+00  .000000E+00  .00000E+00  .00000E+00
  .58620E+02  .80000E+02  .12979E-05 -.24182E-02  .000000E+00  .000000E+00  .000000E+00  .000000E+00  .000000E+00  .000000E+00  .000000E+00  .000000E+00  .000000E+00  .000000E+00  .000000E+00  .000000E+00  .000000E+00  .000000E+00  .00000E+00  .00000E+00
  .68620E+02  .80000E+02  .11778E-05 -.24177E-02  .000000E+00  .000000E+00  .000000E+00  .000000E+00  .000000E+00  .000000E+00  .000000E+00  .000000E+00  .000000E+00  .000000E+00  .000000E+00  .000000E+00  .000000E+00  .000000E+00  .00000E+00  .00000E+00
  .78620E+02  .80000E+02  .95147E-06 -.24173E-02  .000000E+00  .000000E+00  .000000E+00  .000000E+00  .000000E+00  .000000E+00  .000000E+00  .000000E+00  .000000E+00  .000000E+00  .000000E+00  .000000E+00  .000000E+00  .000000E+00  .00000E+00  .00000E+00
  .88620E+02  .80000E+02  .66340E-06 -.24170E-02  .000000E+00  .000000E+00  .000000E+00  .000000E+00  .000000E+00  .000000E+00  .000000E+00  .000000E+00  .000000E+00  .000000E+00  .000000E+00  .000000E+00  .000000E+00  .000000E+00  .00000E+00  .00000E+00
  .98620E+02  .80000E+02  .33332E-06 -.24168E-02  .000000E+00  .000000E+00  .000000E+00  .000000E+00  .000000E+00  .000000E+00  .000000E+00  .000000E+00  .000000E+00  .000000E+00  .000000E+00  .000000E+00  .000000E+00  .000000E+00  .00000E+00  .00000E+00
  .10862E+03  .80000E+02  .00000E+00 -.24167E-02  .000000E+00  .000000E+00  .000000E+00  .000000E+00  .000000E+00  .000000E+00  .000000E+00  .000000E+00  .000000E+00  .000000E+00  .000000E+00  .000000E+00  .000000E+00  .000000E+00  .00000E+00  .00000E+00
  .00000E+00  .10000E+03  .00000E+00 -.30271E-02  .000000E+00  .000000E+00  .000000E+00  .000000E+00  .000000E+00  .000000E+00  .000000E+00  .000000E+00  .000000E+00  .000000E+00  .000000E+00  .000000E+00  .000000E+00  .000000E+00  .00000E+00  .00000E+00
  .26200E+01  .10000E+03  .20610E-06 -.30271E-02  .000000E+00  .000000E+00  .000000E+00  .000000E+00  .000000E+00  .000000E+00  .000000E+00  .000000E+00  .000000E+00  .000000E+00  .000000E+00  .000000E+00  .000000E+00  .000000E+00  .00000E+00  .00000E+00
  .56200E+01  .10000E+03  .44028E-06 -.30270E-02  .000000E+00  .000000E+00  .000000E+00  .000000E+00  .000000E+00  .000000E+00  .000000E+00  .000000E+00  .000000E+00  .000000E+00  .000000E+00  .000000E+00  .000000E+00  .000000E+00  .00000E+00  .00000E+00
  .86200E+01  .10000E+03  .67094E-06 -.30270E-02  .000000E+00  .000000E+00  .000000E+00  .000000E+00  .000000E+00  .000000E+00  .000000E+00  .000000E+00  .000000E+00  .000000E+00  .000000E+00  .000000E+00  .000000E+00  .000000E+00  .00000E+00  .00000E+00
  .13620E+02  .10000E+03  .10423E-05 -.30268E-02  .000000E+00  .000000E+00  .000000E+00  .000000E+00  .000000E+00  .000000E+00  .000000E+00  .000000E+00  .000000E+00  .000000E+00  .000000E+00  .000000E+00  .000000E+00  .000000E+00  .00000E+00  .00000E+00
  .21620E+02  .10000E+03  .15828E-05 -.30264E-02  .000000E+00  .000000E+00  .000000E+00  .000000E+00  .000000E+00  .000000E+00  .000000E+00  .000000E+00  .000000E+00  .000000E+00  .000000E+00  .000000E+00  .000000E+00  .000000E+00  .00000E+00  .00000E+00
  .33620E+02  .10000E+03  .22103E-05 -.30255E-02  .000000E+00  .000000E+00  .000000E+00  .000000E+00  .000000E+00  .000000E+00  .000000E+00  .000000E+00  .000000E+00  .000000E+00  .000000E+00  .000000E+00  .000000E+00  .000000E+00  .00000E+00  .00000E+00
  .48620E+02  .10000E+03  .25850E-05 -.30241E-02  .000000E+00  .000000E+00  .000000E+00  .000000E+00  .000000E+00  .000000E+00  .000000E+00  .000000E+00  .000000E+00  .000000E+00  .000000E+00  .000000E+00  .000000E+00  .000000E+00  .00000E+00  .00000E+00
  .68620E+02  .10000E+03  .23042E-05 -.30222E-02  .000000E+00  .000000E+00  .000000E+00  .000000E+00  .000000E+00  .000000E+00  .000000E+00  .000000E+00  .000000E+00  .000000E+00  .000000E+00  .000000E+00  .000000E+00  .000000E+00  .00000E+00  .00000E+00
  .88620E+02  .10000E+03  .13003E-05 -.30207E-02  .000000E+00  .000000E+00  .000000E+00  .000000E+00  .000000E+00  .000000E+00  .000000E+00  .000000E+00  .000000E+00  .000000E+00  .000000E+00  .000000E+00  .000000E+00  .000000E+00  .00000E+00  .00000E+00
  .10862E+03  .10000E+03  .00000E+00 -.30202E-02  .000000E+00  .000000E+00  .000000E+00  .000000E+00  .000000E+00  .000000E+00  .000000E+00  .000000E+00  .000000E+00  .000000E+00  .000000E+00  .000000E+00  .000000E+00  .000000E+00  .00000E+00  .00000E+00
  .00000E+00  .12000E+03  .00000E+00 -.36359E-02  .000000E+00  .000000E+00  .000000E+00  .000000E+00  .000000E+00  .000000E+00  .000000E+00  .000000E+00  .000000E+00  .000000E+00  .000000E+00  .000000E+00  .000000E+00  .000000E+00  .00000E+00  .00000E+00
  .13100E+01  .12000E+03  .18491E-06 -.36359E-02  .000000E+00  .000000E+00  .000000E+00  .000000E+00  .000000E+00  .000000E+00  .000000E+00  .000000E+00  .000000E+00  .000000E+00  .000000E+00  .000000E+00  .000000E+00  .000000E+00  .00000E+00  .00000E+00
  .26200E+01  .12000E+03  .36953E-06 -.36359E-02  .000000E+00  .000000E+00  .000000E+00  .000000E+00  .000000E+00  .000000E+00  .000000E+00  .000000E+00  .000000E+00  .000000E+00  .000000E+00  .000000E+00  .000000E+00  .000000E+00  .00000E+00  .00000E+00
  .41200E+01  .12000E+03  .58007E-06 -.36359E-02  .000000E+00  .000000E+00  .000000E+00  .000000E+00  .000000E+00  .000000E+00  .000000E+00  .000000E+00  .000000E+00  .000000E+00  .000000E+00  .000000E+00  .000000E+00  .000000E+00  .00000E+00  .00000E+00
  .56200E+01  .12000E+03  .78950E-06 -.36358E-02  .000000E+00  .000000E+00  .000000E+00  .000000E+00  .000000E+00  .000000E+00  .000000E+00  .000000E+00  .000000E+00  .000000E+00  .000000E+00  .000000E+00  .000000E+00  .000000E+00  .00000E+00  .00000E+00
  .71200E+01  .12000E+03  .99712E-06 -.36358E-02  .000000E+00  .000000E+00  .000000E+00  .000000E+00  .000000E+00  .000000E+00  .000000E+00  .000000E+00  .000000E+00  .000000E+00  .000000E+00  .000000E+00  .000000E+00  .000000E+00  .00000E+00  .00000E+00
  .86200E+01  .12000E+03  .12028E-05 -.36357E-02  .000000E+00  .000000E+00  .000000E+00  .000000E+00  .000000E+00  .000000E+00  .000000E+00  .000000E+00  .000000E+00  .000000E+00  .000000E+00  .000000E+00  .000000E+00  .000000E+00  .00000E+00  .00000E+00
  .11120E+02  .12000E+03  .15395E-05 -.36356E-02  .000000E+00  .000000E+00  .000000E+00  .000000E+00  .000000E+00  .000000E+00  .000000E+00  .000000E+00  .000000E+00  .000000E+00  .000000E+00  .000000E+00  .000000E+00  .000000E+00  .00000E+00  .00000E+00
  .13620E+02  .12000E+03  .18679E-05 -.36354E-02  .000000E+00  .000000E+00  .000000E+00  .000000E+00  .000000E+00  .000000E+00  .000000E+00  .000000E+00  .000000E+00  .000000E+00  .000000E+00  .000000E+00  .000000E+00  .000000E+00  .00000E+00  .00000E+00
  .17620E+02  .12000E+03  .23680E-05 -.36351E-02  .000000E+00  .000000E+00  .000000E+00  .000000E+00  .000000E+00  .000000E+00  .000000E+00  .000000E+00  .000000E+00  .000000E+00  .000000E+00  .000000E+00  .000000E+00  .000000E+00  .00000E+00  .00000E+00
  .21620E+02  .12000E+03  .28360E-05 -.36346E-02  .000000E+00  .000000E+00  .000000E+00  .000000E+00  .000000E+00  .000000E+00  .000000E+00  .000000E+00  .000000E+00  .000000E+00  .000000E+00  .000000E+00  .000000E+00  .000000E+00  .00000E+00  .00000E+00
  .27620E+02  .12000E+03  .34505E-05 -.36338E-02  .000000E+00  .000000E+00  .000000E+00  .000000E+00  .000000E+00  .000000E+00  .000000E+00  .000000E+00  .000000E+00  .000000E+00  .000000E+00  .000000E+00  .000000E+00  .000000E+00  .00000E+00  .00000E+00
  .33620E+02  .12000E+03  .39613E-05 -.36329E-02  .000000E+00  .000000E+00  .000000E+00  .000000E+00  .000000E+00  .000000E+00  .000000E+00  .000000E+00  .000000E+00  .000000E+00  .000000E+00  .000000E+00  .000000E+00  .000000E+00  .00000E+00  .00000E+00
  .41120E+02  .12000E+03  .44010E-05 -.36316E-02  .000000E+00  .000000E+00  .000000E+00  .000000E+00  .000000E+00  .000000E+00  .000000E+00  .000000E+00  .000000E+00  .000000E+00  .000000E+00  .000000E+00  .000000E+00  .000000E+00  .00000E+00  .00000E+00
  .48620E+02  .12000E+03  .46402E-05 -.36303E-02  .000000E+00  .000000E+00  .000000E+00  .000000E+00  .000000E+00  .000000E+00  .000000E+00  .000000E+00  .000000E+00  .000000E+00  .000000E+00  .000000E+00  .000000E+00  .000000E+00  .00000E+00  .00000E+00
  .58620E+02  .12000E+03  .45637E-05 -.36284E-02  .000000E+00  .000000E+00  .000000E+00  .000000E+00  .000000E+00  .000000E+00  .000000E+00  .000000E+00  .000000E+00  .000000E+00  .000000E+00  .000000E+00  .000000E+00  .000000E+00  .00000E+00  .00000E+00
  .68620E+02  .12000E+03  .41395E-05 -.36266E-02  .000000E+00  .000000E+00  .000000E+00  .000000E+00  .000000E+00  .000000E+00  .000000E+00  .000000E+00  .000000E+00  .000000E+00  .000000E+00  .000000E+00  .000000E+00  .000000E+00  .00000E+00  .00000E+00
  .78620E+02  .12000E+03  .33438E-05 -.36250E-02  .000000E+00  .000000E+00  .000000E+00  .000000E+00  .000000E+00  .000000E+00  .000000E+00  .000000E+00  .000000E+00  .000000E+00  .000000E+00  .000000E+00  .000000E+00  .000000E+00  .00000E+00  .00000E+00
  .88620E+02  .12000E+03  .23307E-05 -.36238E-02  .000000E+00  .000000E+00  .000000E+00  .000000E+00  .000000E+00  .000000E+00  .000000E+00  .000000E+00  .000000E+00  .000000E+00  .000000E+00  .000000E+00  .000000E+00  .000000E+00  .00000E+00  .00000E+00