 TITLE = "GEORGIA TECH TEST PIT GRID                                                      "
 VARIABLES = "R","Z","DISP_R","DISP_Z","EPSR","EPSTH","EPSZ","EPSRZ","SIGMAR","SIGMATH","SIGMAZ","SIGMARZ","SIGMA1","SIGMA2","SIGMA3","ANGLE"
 ZONE T="GEOMETRY & DISP", N=   95, E=   24, F=FEPOINT, ET=QUADRILATERAL
  0.00000000  0.00000000  0.00000000  0.00000000     0.0000000     0.0000000     0.0000000     0.0000000     0.0000000     0.0000000     0.0000000     0.0000000     0.0000000     0.0000000     0.0000000     0.0000000
  0.50650001  0.00000000  0.00000000  0.00000000     0.0000000     0.0000000     0.0000000     0.0000000     0.0000000     0.0000000     0.0000000     0.0000000     0.0000000     0.0000000     0.0000000     0.0000000
  1.01300001  0.00000000  0.00000000  0.00000000     0.0000000     0.0000000     0.0000000     0.0000000     0.0000000     0.0000000     0.0000000     0.0000000     0.0000000     0.0000000     0.0000000     0.0000000
  1.51950002  0.00000000  0.00000000  0.00000000     0.0000000     0.0000000     0.0000000     0.0000000     0.0000000     0.0000000     0.0000000     0.0000000     0.0000000     0.0000000     0.0000000     0.0000000
  2.02600002  0.00000000  0.00000000  0.00000000     0.0000000     0.0000000     0.0000000     0.0000000     0.0000000     0.0000000     0.0000000     0.0000000     0.0000000     0.0000000     0.0000000     0.0000000
  2.53250003  0.00000000  0.00000000  0.00000000     0.0000000     0.0000000     0.0000000     0.0000000     0.0000000     0.0000000     0.0000000     0.0000000     0.0000000     0.0000000     0.0000000     0.0000000
  3.03900003  0.00000000  0.00000000  0.00000000     0.0000000     0.0000000     0.0000000     0.0000000     0.0000000     0.0000000     0.0000000     0.0000000     0.0000000     0.0000000     0.0000000     0.0000000
  0.00000000  0.77499998  0.00000000 -0.00012561     0.0000000     0.0000000     0.0000000     0.0000000     0.0000000     0.0000000     0.0000000     0.0000000     0.0000000     0.0000000     0.0000000     0.0000000
  1.01300001  0.77499998  0.00004807 -0.00012853     0.0000000     0.0000000     0.0000000     0.0000000     0.0000000     0.0000000     0.0000000     0.0000000     0.0000000     0.0000000     0.0000000     0.0000000
  2.02600002  0.77499998  0.00010499 -0.00013544     0.0000000     0.0000000     0.0000000     0.0000000     0.0000000     0.0000000     0.0000000     0.0000000     0.0000000     0.0000000     0.0000000     0.0000000
  3.03900003  0.77499998  0.00018561 -0.00016400     0.0000000     0.0000000     0.0000000     0.0000000     0.0000000     0.0000000     0.0000000     0.0000000     0.0000000     0.0000000     0.0000000     0.0000000
  0.00000000  1.54999995  0.00000000 -0.00031238     0.0000000     0.0000000     0.0000000     0.0000000     0.0000000     0.0000000     0.0000000     0.0000000     0.0000000     0.0000000     0.0000000     0.0000000
  0.50650001  1.54999995  0.00004078 -0.00031253     0.0000000     0.0000000     0.0000000     0.0000000     0.0000000     0.0000000     0.0000000     0.0000000     0.0000000     0.0000000     0.0000000     0.0000000
  1.01300001  1.54999995  0.00008263 -0.00031833     0.0000000     0.0000000     0.0000000     0.0000000     0.0000000     0.0000000     0.0000000     0.0000000     0.0000000     0.0000000     0.0000000     0.0000000
  1.51950002  1.54999995  0.00012669 -0.00032620     0.0000000     0.0000000     0.0000000     0.0000000     0.0000000     0.0000000     0.0000000     0.0000000     0.0000000     0.0000000     0.0000000     0.0000000
  2.02600002  1.54999995  0.00017469 -0.00034187     0.0000000     0.0000000     0.0000000     0.0000000     0.0000000     0.0000000     0.0000000     0.0000000     0.0000000     0.0000000     0.0000000     0.0000000
  2.53250003  1.54999995  0.00022118 -0.00035658     0.0000000     0.0000000     0.0000000     0.0000000     0.0000000     0.0000000     0.0000000     0.0000000     0.0000000     0.0000000     0.0000000     0.0000000
  3.03900003  1.54999995  0.00027180 -0.00038423     0.0000000     0.0000000     0.0000000     0.0000000     0.0000000     0.0000000     0.0000000     0.0000000     0.0000000     0.0000000     0.0000000     0.0000000
  0.00000000  2.32499981  0.00000000 -0.00053542     0.0000000     0.0000000     0.0000000     0.0000000     0.0000000     0.0000000     0.0000000     0.0000000     0.0000000     0.0000000     0.0000000     0.0000000
  1.01300001  2.32499981  0.00009995 -0.00054340     0.0000000     0.0000000     0.0000000     0.0000000     0.0000000     0.0000000     0.0000000     0.0000000     0.0000000     0.0000000     0.0000000     0.0000000
  2.02600002  2.32499981  0.00019876 -0.00056796     0.0000000     0.0000000     0.0000000     0.0000000     0.0000000     0.0000000     0.0000000     0.0000000     0.0000000     0.0000000     0.0000000     0.0000000
  3.03900003  2.32499981  0.00029217 -0.00060410     0.0000000     0.0000000     0.0000000     0.0000000     0.0000000     0.0000000     0.0000000     0.0000000     0.0000000     0.0000000     0.0000000     0.0000000
  0.00000000  3.09999990  0.00000000 -0.00077659     0.0000000     0.0000000     0.0000000     0.0000000     0.0000000     0.0000000     0.0000000     0.0000000     0.0000000     0.0000000     0.0000000     0.0000000
  0.50650001  3.09999990  0.00005290 -0.00077926     0.0000000     0.0000000     0.0000000     0.0000000     0.0000000     0.0000000     0.0000000     0.0000000     0.0000000     0.0000000     0.0000000     0.0000000
  1.01300001  3.09999990  0.00010537 -0.00078342     0.0000000     0.0000000     0.0000000     0.0000000     0.0000000     0.0000000     0.0000000     0.0000000     0.0000000     0.0000000     0.0000000     0.0000000
  1.51950002  3.09999990  0.00015828 -0.00079265     0.0000000     0.0000000     0.0000000     0.0000000     0.0000000     0.0000000     0.0000000     0.0000000     0.0000000     0.0000000     0.0000000     0.0000000
  2.02600002  3.09999990  0.00020870 -0.00080193     0.0000000     0.0000000     0.0000000     0.0000000     0.0000000     0.0000000     0.0000000     0.0000000     0.0000000     0.0000000     0.0000000     0.0000000
  2.53250003  3.09999990  0.00025792 -0.00081300     0.0000000     0.0000000     0.0000000     0.0000000     0.0000000     0.0000000     0.0000000     0.0000000     0.0000000     0.0000000     0.0000000     0.0000000
  3.03900003  3.09999990  0.00030107 -0.00082159     0.0000000     0.0000000     0.0000000     0.0000000     0.0000000     0.0000000     0.0000000     0.0000000     0.0000000     0.0000000     0.0000000     0.0000000
  0.00000000  3.87500000  0.00000000 -0.00102060     0.0000000     0.0000000     0.0000000     0.0000000     0.0000000     0.0000000     0.0000000     0.0000000     0.0000000     0.0000000     0.0000000     0.0000000
  1.01300001  3.87500000  0.00010502 -0.00102638     0.0000000     0.0000000     0.0000000     0.0000000     0.0000000     0.0000000     0.0000000     0.0000000     0.0000000     0.0000000     0.0000000     0.0000000
  2.02600002  3.87500000  0.00020657 -0.00103886     0.0000000     0.0000000     0.0000000     0.0000000     0.0000000     0.0000000     0.0000000     0.0000000     0.0000000     0.0000000     0.0000000     0.0000000
  3.03900003  3.87500000  0.00030093 -0.00104364     0.0000000     0.0000000     0.0000000     0.0000000     0.0000000     0.0000000     0.0000000     0.0000000     0.0000000     0.0000000     0.0000000     0.0000000
  0.00000000  4.64999962  0.00000000 -0.00126304     0.0000000     0.0000000     0.0000000     0.0000000     0.0000000     0.0000000     0.0000000     0.0000000     0.0000000     0.0000000     0.0000000     0.0000000
  0.50650001  4.64999962  0.00005180 -0.00126340     0.0000000     0.0000000     0.0000000     0.0000000     0.0000000     0.0000000     0.0000000     0.0000000     0.0000000     0.0000000     0.0000000     0.0000000
  1.01300001  4.64999962  0.00010305 -0.00126602     0.0000000     0.0000000     0.0000000     0.0000000     0.0000000     0.0000000     0.0000000     0.0000000     0.0000000     0.0000000     0.0000000     0.0000000
  1.51950002  4.64999962  0.00015296 -0.00126889     0.0000000     0.0000000     0.0000000     0.0000000     0.0000000     0.0000000     0.0000000     0.0000000     0.0000000     0.0000000     0.0000000     0.0000000
  2.02600002  4.64999962  0.00020184 -0.00127192     0.0000000     0.0000000     0.0000000     0.0000000     0.0000000     0.0000000     0.0000000     0.0000000     0.0000000     0.0000000     0.0000000     0.0000000
  2.53250003  4.64999962  0.00024974 -0.00127324     0.0000000     0.0000000     0.0000000     0.0000000     0.0000000     0.0000000     0.0000000     0.0000000     0.0000000     0.0000000     0.0000000     0.0000000
  3.03900003  4.64999962  0.00029821 -0.00127125     0.0000000     0.0000000     0.0000000     0.0000000     0.0000000     0.0000000     0.0000000     0.0000000     0.0000000     0.0000000     0.0000000     0.0000000
  0.00000000  5.42499971  0.00000000 -0.00149995     0.0000000     0.0000000     0.0000000     0.0000000     0.0000000     0.0000000     0.0000000     0.0000000     0.0000000     0.0000000     0.0000000     0.0000000
  1.01300001  5.42499971  0.00010015 -0.00150089     0.0000000     0.0000000     0.0000000     0.0000000     0.0000000     0.0000000     0.0000000     0.0000000     0.0000000     0.0000000     0.0000000     0.0000000
  2.02600002  5.42499971  0.00019811 -0.00150248     0.0000000     0.0000000     0.0000000     0.0000000     0.0000000     0.0000000     0.0000000     0.0000000     0.0000000     0.0000000     0.0000000     0.0000000
  3.03900003  5.42499971  0.00029425 -0.00150130     0.0000000     0.0000000     0.0000000     0.0000000     0.0000000     0.0000000     0.0000000     0.0000000     0.0000000     0.0000000     0.0000000     0.0000000
  0.00000000  6.19999981  0.00000000 -0.00173185     0.0000000     0.0000000     0.0000000     0.0000000     0.0000000     0.0000000     0.0000000     0.0000000     0.0000000     0.0000000     0.0000000     0.0000000
  0.50650001  6.19999981  0.00004902 -0.00173204     0.0000000     0.0000000     0.0000000     0.0000000     0.0000000     0.0000000     0.0000000     0.0000000     0.0000000     0.0000000     0.0000000     0.0000000
  1.01300001  6.19999981  0.00009790 -0.00173213     0.0000000     0.0000000     0.0000000     0.0000000     0.0000000     0.0000000     0.0000000     0.0000000     0.0000000     0.0000000     0.0000000     0.0000000
  1.51950002  6.19999981  0.00014658 -0.00173226     0.0000000     0.0000000     0.0000000     0.0000000     0.0000000     0.0000000     0.0000000     0.0000000     0.0000000     0.0000000     0.0000000     0.0000000
  2.02600002  6.19999981  0.00019506 -0.00173200     0.0000000     0.0000000     0.0000000     0.0000000     0.0000000     0.0000000     0.0000000     0.0000000     0.0000000     0.0000000     0.0000000     0.0000000
  2.53250003  6.19999981  0.00024325 -0.00173137     0.0000000     0.0000000     0.0000000     0.0000000     0.0000000     0.0000000     0.0000000     0.0000000     0.0000000     0.0000000     0.0000000     0.0000000
  3.03900003  6.19999981  0.00029122 -0.00173013     0.0000000     0.0000000     0.0000000     0.0000000     0.0000000     0.0000000     0.0000000     0.0000000     0.0000000     0.0000000     0.0000000     0.0000000
  0.00000000  6.97499990  0.00000000 -0.00196126     0.0000000     0.0000000     0.0000000     0.0000000     0.0000000     0.0000000     0.0000000     0.0000000     0.0000000     0.0000000     0.0000000     0.0000000
  1.01300001  6.97499990  0.00009663 -0.00196106     0.0000000     0.0000000     0.0000000     0.0000000     0.0000000     0.0000000     0.0000000     0.0000000     0.0000000     0.0000000     0.0000000     0.0000000
  2.02600002  6.97499990  0.00019282 -0.00196016     0.0000000     0.0000000     0.0000000     0.0000000     0.0000000     0.0000000     0.0000000     0.0000000     0.0000000     0.0000000     0.0000000     0.0000000
  3.03900003  6.97499990  0.00028864 -0.00195764     0.0000000     0.0000000     0.0000000     0.0000000     0.0000000     0.0000000     0.0000000     0.0000000     0.0000000     0.0000000     0.0000000     0.0000000
  0.00000000  7.75000000  0.00000000 -0.00218859     0.0000000     0.0000000     0.0000000     0.0000000     0.0000000     0.0000000     0.0000000     0.0000000     0.0000000     0.0000000     0.0000000     0.0000000
  0.50650001  7.75000000  0.00004778 -0.00218848     0.0000000     0.0000000     0.0000000     0.0000000     0.0000000     0.0000000     0.0000000     0.0000000     0.0000000     0.0000000     0.0000000     0.0000000
  1.01300001  7.75000000  0.00009555 -0.00218818     0.0000000     0.0000000     0.0000000     0.0000000     0.0000000     0.0000000     0.0000000     0.0000000     0.0000000     0.0000000     0.0000000     0.0000000
  1.51950002  7.75000000  0.00014325 -0.00218767     0.0000000     0.0000000     0.0000000     0.0000000     0.0000000     0.0000000     0.0000000     0.0000000     0.0000000     0.0000000     0.0000000     0.0000000
  2.02600002  7.75000000  0.00019090 -0.00218689     0.0000000     0.0000000     0.0000000     0.0000000     0.0000000     0.0000000     0.0000000     0.0000000     0.0000000     0.0000000     0.0000000     0.0000000
  2.53250003  7.75000000  0.00023851 -0.00218576     0.0000000     0.0000000     0.0000000     0.0000000     0.0000000     0.0000000     0.0000000     0.0000000     0.0000000     0.0000000     0.0000000     0.0000000
  3.03900003  7.75000000  0.00028620 -0.00218433     0.0000000     0.0000000     0.0000000     0.0000000     0.0000000     0.0000000     0.0000000     0.0000000     0.0000000     0.0000000     0.0000000     0.0000000
  0.00000000  8.52499962  0.00000000 -0.00241427     0.0000000     0.0000000     0.0000000     0.0000000     0.0000000     0.0000000     0.0000000     0.0000000     0.0000000     0.0000000     0.0000000     0.0000000
  1.01300001  8.52499962  0.00009469 -0.00241380     0.0000000     0.0000000     0.0000000     0.0000000     0.0000000     0.0000000     0.0000000     0.0000000     0.0000000     0.0000000     0.0000000     0.0000000
  2.02600002  8.52499962  0.00018930 -0.00241232     0.0000000     0.0000000     0.0000000     0.0000000     0.0000000     0.0000000     0.0000000     0.0000000     0.0000000     0.0000000     0.0000000     0.0000000
  3.03900003  8.52499962  0.00028391 -0.00240988     0.0000000     0.0000000     0.0000000     0.0000000     0.0000000     0.0000000     0.0000000     0.0000000     0.0000000     0.0000000     0.0000000     0.0000000
  0.00000000  9.30000019  0.00000000 -0.00263856     0.0000000     0.0000000     0.0000000     0.0000000     0.0000000     0.0000000     0.0000000     0.0000000     0.0000000     0.0000000     0.0000000     0.0000000
  0.50650001  9.30000019  0.00004695 -0.00263845     0.0000000     0.0000000     0.0000000     0.0000000     0.0000000     0.0000000     0.0000000     0.0000000     0.0000000     0.0000000     0.0000000     0.0000000
  1.01300001  9.30000019  0.00009390 -0.00263808     0.0000000     0.0000000     0.0000000     0.0000000     0.0000000     0.0000000     0.0000000     0.0000000     0.0000000     0.0000000     0.0000000     0.0000000
  1.51950002  9.30000019  0.00014084 -0.00263746     0.0000000     0.0000000     0.0000000     0.0000000     0.0000000     0.0000000     0.0000000     0.0000000     0.0000000     0.0000000     0.0000000     0.0000000
  2.02600002  9.30000019  0.00018780 -0.00263659     0.0000000     0.0000000     0.0000000     0.0000000     0.0000000     0.0000000     0.0000000     0.0000000     0.0000000     0.0000000     0.0000000     0.0000000
  2.53250003  9.30000019  0.00023476 -0.00263551     0.0000000     0.0000000     0.0000000     0.0000000     0.0000000     0.0000000     0.0000000     0.0000000     0.0000000     0.0000000     0.0000000     0.0000000
  3.03900003  9.30000019  0.00028171 -0.00263419     0.0000000     0.0000000     0.0000000     0.0000000     0.0000000     0.0000000     0.0000000     0.0000000     0.0000000     0.0000000     0.0000000     0.0000000
  0.00000000 10.07499981  0.00000000 -0.00286162     0.0000000     0.0000000     0.0000000     0.0000000     0.0000000     0.0000000     0.0000000     0.0000000     0.0000000     0.0000000     0.0000000     0.0000000
  1.01300001 10.07499981  0.00009317 -0.00286112     0.0000000     0.0000000     0.0000000     0.0000000     0.0000000     0.0000000     0.0000000     0.0000000     0.0000000     0.0000000     0.0000000     0.0000000
  2.02600002 10.07499981  0.00018634 -0.00285967     0.0000000     0.0000000     0.0000000     0.0000000     0.0000000     0.0000000     0.0000000     0.0000000     0.0000000     0.0000000     0.0000000     0.0000000
  3.03900003 10.07499981  0.00027953 -0.00285726     0.0000000     0.0000000     0.0000000     0.0000000     0.0000000     0.0000000     0.0000000     0.0000000     0.0000000     0.0000000     0.0000000     0.0000000
  0.00000000 10.85000038  0.00000000 -0.00308345     0.0000000     0.0000000     0.0000000     0.0000000     0.0000000     0.0000000     0.0000000     0.0000000     0.0000000     0.0000000     0.0000000     0.0000000
  0.50650001 10.85000038  0.00004622 -0.00308333     0.0000000     0.0000000     0.0000000     0.0000000     0.0000000     0.0000000     0.0000000     0.0000000     0.0000000     0.0000000     0.0000000     0.0000000
  1.01300001 10.85000038  0.00009244 -0.00308297     0.0000000     0.0000000     0.0000000     0.0000000     0.0000000     0.0000000     0.0000000     0.0000000     0.0000000     0.0000000     0.0000000     0.0000000
  1.51950002 10.85000038  0.00013867 -0.00308237     0.0000000     0.0000000     0.0000000     0.0000000     0.0000000     0.0000000     0.0000000     0.0000000     0.0000000     0.0000000     0.0000000     0.0000000
  2.02600002 10.85000038  0.00018490 -0.00308153     0.0000000     0.0000000     0.0000000     0.0000000     0.0000000     0.0000000     0.0000000     0.0000000     0.0000000     0.0000000     0.0000000     0.0000000
  2.53250003 10.85000038  0.00023112 -0.00308047     0.0000000     0.0000000     0.0000000     0.0000000     0.0000000     0.0000000     0.0000000     0.0000000     0.0000000     0.0000000     0.0000000     0.0000000
  3.03900003 10.85000038  0.00027736 -0.00307914     0.0000000     0.0000000     0.0000000     0.0000000     0.0000000     0.0000000     0.0000000     0.0000000     0.0000000     0.0000000     0.0000000     0.0000000
  0.00000000 11.62500000  0.00000000 -0.00330405     0.0000000     0.0000000     0.0000000     0.0000000     0.0000000     0.0000000     0.0000000     0.0000000     0.0000000     0.0000000     0.0000000     0.0000000
  1.01300001 11.62500000  0.00009170 -0.00330358     0.0000000     0.0000000     0.0000000     0.0000000     0.0000000     0.0000000     0.0000000     0.0000000     0.0000000     0.0000000     0.0000000     0.0000000
  2.02600002 11.62500000  0.00018341 -0.00330216     0.0000000     0.0000000     0.0000000     0.0000000     0.0000000     0.0000000     0.0000000     0.0000000     0.0000000     0.0000000     0.0000000     0.0000000
  3.03900003 11.62500000  0.00027512 -0.00329980     0.0000000     0.0000000     0.0000000     0.0000000     0.0000000     0.0000000     0.0000000     0.0000000     0.0000000     0.0000000     0.0000000     0.0000000
  0.00000000 12.40000057  0.00000000 -0.00352341     0.0000000     0.0000000     0.0000000     0.0000000     0.0000000     0.0000000     0.0000000     0.0000000     0.0000000     0.0000000     0.0000000     0.0000000
  0.50650001 12.40000057  0.00004549 -0.00352328     0.0000000     0.0000000     0.0000000     0.0000000     0.0000000     0.0000000     0.0000000     0.0000000     0.0000000     0.0000000     0.0000000     0.0000000
  1.01300001 12.40000057  0.00009098 -0.00352293     0.0000000     0.0000000     0.0000000     0.0000000     0.0000000     0.0000000     0.0000000     0.0000000     0.0000000     0.0000000     0.0000000     0.0000000
  1.51950002 12.40000057  0.00013648 -0.00352234     0.0000000     0.0000000     0.0000000     0.0000000     0.0000000     0.0000000     0.0000000     0.0000000     0.0000000     0.0000000     0.0000000     0.0000000
  2.02600002 12.40000057  0.00018199 -0.00352154     0.0000000     0.0000000     0.0000000     0.0000000     0.0000000     0.0000000     0.0000000     0.0000000     0.0000000     0.0000000     0.0000000     0.0000000
  2.53250003 12.40000057  0.00022748 -0.00352044     0.0000000     0.0000000     0.0000000     0.0000000     0.0000000     0.0000000     0.0000000     0.0000000     0.0000000     0.0000000     0.0000000     0.0000000
  3.03900003 12.40000057  0.00027298 -0.00351919     0.0000000     0.0000000     0.0000000     0.0000000     0.0000000     0.0000000     0.0000000     0.0000000     0.0000000     0.0000000     0.0000000     0.0000000
           1           3          14          12
           3           5          16          14
           5           7          18          16
          12          14          25          23
          14          16          27          25
          16          18          29          27
          23          25          36          34
          25          27          38          36
          27          29          40          38
          34          36          47          45
          36          38          49          47
          38          40          51          49
          45          47          58          56
          47          49          60          58
          49          51          62          60
          56          58          69          67
          58          60          71          69
          60          62          73          71
          67          69          80          78
          69          71          82          80
          71          73          84          82
          78          80          91          89
          80          82          93          91
          82          84          95          93
 ZONE T="STRESS & STRAIN", I=  216, F=POINT
  0.11416677  0.17468756  0.00000000  0.00000000     0.0000117     0.0000116    -0.0001401     0.0000077   -16.0544584   -16.0553041   -20.7966519     0.1207104   -20.7997227   -16.0553036   -16.0513878     1.4571806
  0.11416677  0.77499998  0.00000000  0.00000000     0.0000466     0.0000465    -0.0002012     0.0000073   -12.7771674   -12.7806558   -19.9777898     0.1062850   -19.9793587   -12.7806559   -12.7755985     0.8454703
  0.11416677  1.37531245  0.00000000  0.00000000     0.0000736     0.0000734    -0.0002624     0.0000068   -12.9705912   -12.9767905   -22.7443419     0.0995435   -22.7453556   -12.9767904   -12.9695778     0.5834642
  0.50650001  0.17468756  0.00000000  0.00000000     0.0000119     0.0000117    -0.0001404     0.0000324   -16.0640579   -16.0678113   -20.8246326     0.5066429   -20.8779545   -16.0678120   -16.0107365     6.0080278
  0.50650001  0.77499998  0.00000000  0.00000000     0.0000475     0.0000469    -0.0002016     0.0000234   -12.5934937   -12.6089102   -19.8014473     0.3389411   -19.8173504   -12.6089106   -12.5775909     2.6863295
  0.50650001  1.37531245  0.00000000  0.00000000     0.0000750     0.0000741    -0.0002628     0.0000144   -12.5877912   -12.6150578   -22.3321808     0.2071985   -22.3365841   -12.6150579   -12.5833874     1.2175674
  0.89883322  0.17468756  0.00000000  0.00000000     0.0000120     0.0000118    -0.0001430     0.0000575   -16.5112986   -16.5180142   -21.3970318     0.9064718   -21.5597916   -16.5180149   -16.3485394    10.1791606
  0.89883322  0.77499998  0.00000000  0.00000000     0.0000483     0.0000473    -0.0002042     0.0000400   -12.7998718   -12.8273481   -20.1380636     0.5805543   -20.1837101   -12.8273478   -12.7542257     4.4956325
  0.89883322  1.37531245  0.00000000  0.00000000     0.0000765     0.0000748    -0.0002654     0.0000223   -12.6003069   -12.6486911   -22.4620069     0.3217142   -22.4724903   -12.6486912   -12.5898228     1.8664911
  1.12716675  0.17468756  0.00000000  0.00000000     0.0000139     0.0000121    -0.0001437     0.0000761   -16.1033832   -16.1598290   -21.0185437     1.1865562   -21.2899952   -16.1598282   -15.8319311    12.8859691
  1.12716675  0.77499998  0.00000000  0.00000000     0.0000532     0.0000480    -0.0002061     0.0000586   -11.8622524   -12.0091110   -19.2030098     0.8302097   -19.2957325   -12.0091114   -11.7695303     6.3726812
  1.12716675  1.37531245  0.00000000  0.00000000     0.0000796     0.0000754    -0.0002684     0.0000354   -12.3559042   -12.4751981   -22.3390390     0.5082221   -22.3648453   -12.4751978   -12.3300982     2.9068003
  1.51950002  0.17468756  0.00000000  0.00000000     0.0000145     0.0000126    -0.0001444     0.0001054   -15.8568384   -15.9166285   -20.7694961     1.6296838   -21.2609501   -15.9166288   -15.3653851    16.7814042
  1.51950002  0.77499998  0.00000000  0.00000000     0.0000562     0.0000497    -0.0002105     0.0000749   -11.6742677   -11.8566074   -19.1882193     1.0555809   -19.3336945   -11.8566074   -11.5287933     7.8467674
  1.51950002  1.37531245  0.00000000  0.00000000     0.0000849     0.0000772    -0.0002765     0.0000387   -12.3997715   -12.6229668   -22.8242173     0.5573718   -22.8539333   -12.6229668   -12.3700552     3.0518791
  1.91183329  0.17468756  0.00000000  0.00000000     0.0000152     0.0000131    -0.0001480     0.0001363   -16.2425765   -16.3091831   -21.3075024     2.1145681   -22.0742455   -16.3091831   -15.4758320    19.9306831
  1.91183329  0.77499998  0.00000000  0.00000000     0.0000592     0.0000514    -0.0002178     0.0000927   -12.0614781   -12.2848694   -19.9499439     1.3199942   -20.1649609   -12.2848692   -11.8464613     9.2517784
  1.91183329  1.37531245  0.00000000  0.00000000     0.0000903     0.0000793    -0.0002877     0.0000434   -12.9419829   -13.2631569   -24.0307167     0.6366520   -24.0671501   -13.2631569   -12.9055500     3.2752522
  2.14016676  0.17468756  0.00000000  0.00000000     0.0000228     0.0000137    -0.0001527     0.0001563   -15.1530638   -15.4271550   -20.4672126     2.3677105   -21.3690853   -15.4271545   -14.2511921    20.8520639
  2.14016676  0.77499998  0.00000000  0.00000000     0.0000764     0.0000531    -0.0002220     0.0001009    -8.7185245    -9.3174321   -16.3815637     1.2959963   -16.5948124    -9.3174324    -8.5052757     9.3439514
  2.14016676  1.37531245  0.00000000  0.00000000     0.0000921     0.0000806    -0.0002913     0.0000543   -12.9790427   -13.3182792   -24.2550622     0.7982350   -24.3112888   -13.3182793   -12.9228153     4.0292166
  2.53250003  0.17468756  0.00000000  0.00000000     0.0000235     0.0000152    -0.0001665     0.0002024   -17.7982448   -18.0659937   -23.9240784     3.2636558   -25.3369751   -18.0659943   -16.3853474    23.4086770
  2.53250003  0.77499998  0.00000000  0.00000000     0.0000796     0.0000570    -0.0002300     0.0001145    -8.8347036    -9.4203274   -16.8525943     1.4825256   -17.1179352    -9.4203272    -8.5693626    10.1473073
  2.53250003  1.37531245  0.00000000  0.00000000     0.0000977     0.0000828    -0.0002936     0.0000354   -11.6796087   -12.1029895   -22.7954692     0.5022193   -22.8181133   -12.1029892   -11.6569643     2.5816361
  2.92483330  0.17468756  0.00000000  0.00000000     0.0000242     0.0000163    -0.0001853     0.0002500   -21.8485246   -22.1219456   -29.1431625     4.3540765   -31.1757126   -22.1219463   -19.8159733    25.0238959
  2.92483330  0.77499998  0.00000000  0.00000000     0.0000827     0.0000602    -0.0002431     0.0001297    -9.8776278   -10.4818848   -18.6209658     1.7395364   -18.9543457   -10.4818850    -9.5442486    10.8490828
  2.92483330  1.37531245  0.00000000  0.00000000     0.0001033     0.0000852    -0.0003010     0.0000180   -11.2616015   -11.7680938   -22.5614227     0.2520804   -22.5670433   -11.7680941   -11.2559805     1.2773275
  0.11416677  1.72468746  0.00000000  0.00000000     0.0000851     0.0000849    -0.0002823     0.0000045   -12.0116264   -12.0174019   -22.4996070     0.0646861   -22.5000057   -12.0174017   -12.0112276     0.3533620
  0.11416677  2.32499981  0.00000000  0.00000000     0.0000982     0.0000981    -0.0003001    -0.0000006    -9.9726305    -9.9745834   -20.7370131    -0.0075795   -20.7370186    -9.9745836    -9.9726248    -0.0403438
  0.11416677  2.92531228  0.00000000  0.00000000     0.0001042     0.0001043    -0.0003178    -0.0000038   -10.7396585   -10.7380572   -22.4317569    -0.0522046   -22.4319897   -10.7394257   -10.7380571    -0.2558157
  0.50650001  1.72468746  0.00000000  0.00000000     0.0000865     0.0000856    -0.0002846     0.0000072   -11.9931402   -12.0187607   -22.5843112     0.1023526   -22.5853004   -12.0187607   -11.9921513     0.5536351
  0.50650001  2.32499981  0.00000000  0.00000000     0.0000987     0.0000984    -0.0003011    -0.0000001   -10.0004852   -10.0091553   -20.8134514    -0.0007884   -20.8134518   -10.0091553   -10.0004854    -0.0041777
  0.50650001  2.92531228  0.00000000  0.00000000     0.0001038     0.0001041    -0.0003176    -0.0000054   -10.8098608   -10.8027499   -22.4964185    -0.0749142   -22.4968987   -10.8093805   -10.8027496    -0.3672623
  0.89883322  1.72468746  0.00000000  0.00000000     0.0000878     0.0000863    -0.0002852     0.0000092   -11.6813353   -11.7264655   -22.2519137     0.1307146   -22.2535305   -11.7264652   -11.6797190     0.7083686
  0.89883322  2.32499981  0.00000000  0.00000000     0.0000992     0.0000986    -0.0003005    -0.0000001    -9.7534353    -9.7687092   -20.4853251    -0.0018789   -20.4853249    -9.7687092    -9.7534351    -0.0100311
  0.89883322  2.92531228  0.00000000  0.00000000     0.0001034     0.0001039    -0.0003158    -0.0000076   -10.5964618   -10.5839278   -22.1433231    -0.1049623   -22.1442776   -10.5955076   -10.5839281    -0.5207679