 TITLE = "GEORGIA TECH TEST PIT GRID                                                      "
 VARIABLES = "R","Z","DISP_R","DISP_Z","EPSR","EPSTH","EPSZ","EPSRZ","SIGMAR","SIGMATH","SIGMAZ","SIGMARZ","SIGMA1","SIGMA2","SIGMA3","ANGLE"
 ZONE T="GEOMETRY & DISP", N=   95, E=   24, F=FEPOINT, ET=QUADRILATERAL
  0.00000000  0.00000000  0.00000000  0.00000000     0.0000000     0.0000000     0.0000000     0.0000000     0.0000000     0.0000000     0.0000000     0.0000000     0.0000000     0.0000000     0.0000000     0.0000000
  0.50650001  0.00000000  0.00000000  0.00000000     0.0000000     0.0000000     0.0000000     0.0000000     0.0000000     0.0000000     0.0000000     0.0000000     0.0000000     0.0000000     0.0000000     0.0000000
  1.01300001  0.00000000  0.00000000  0.00000000     0.0000000     0.0000000     0.0000000     0.0000000     0.0000000     0.0000000     0.0000000     0.0000000     0.0000000     0.0000000     0.0000000     0.0000000
  1.51950002  0.00000000  0.00000000  0.00000000     0.0000000     0.0000000     0.0000000     0.0000000     0.0000000     0.0000000     0.0000000     0.0000000     0.0000000     0.0000000     0.0000000     0.0000000
  2.02600002  0.00000000  0.00000000  0.00000000     0.0000000     0.0000000     0.0000000     0.0000000     0.0000000     0.0000000     0.0000000     0.0000000     0.0000000     0.0000000     0.0000000     0.0000000
  2.53250003  0.00000000  0.00000000  0.00000000     0.0000000     0.0000000     0.0000000     0.0000000     0.0000000     0.0000000     0.0000000     0.0000000     0.0000000     0.0000000     0.0000000     0.0000000
  3.03900003  0.00000000  0.00000000  0.00000000     0.0000000     0.0000000     0.0000000     0.0000000     0.0000000     0.0000000     0.0000000     0.0000000     0.0000000     0.0000000     0.0000000     0.0000000
  0.00000000  0.77499998  0.00000000 -0.00012910     0.0000000     0.0000000     0.0000000     0.0000000     0.0000000     0.0000000     0.0000000     0.0000000     0.0000000     0.0000000     0.0000000     0.0000000
  1.01300001  0.77499998  0.00004973 -0.00013179     0.0000000     0.0000000     0.0000000     0.0000000     0.0000000     0.0000000     0.0000000     0.0000000     0.0000000     0.0000000     0.0000000     0.0000000
  2.02600002  0.77499998  0.00010731 -0.00013810     0.0000000     0.0000000     0.0000000     0.0000000     0.0000000     0.0000000     0.0000000     0.0000000     0.0000000     0.0000000     0.0000000     0.0000000
  3.03900003  0.77499998  0.00018473 -0.00016109     0.0000000     0.0000000     0.0000000     0.0000000     0.0000000     0.0000000     0.0000000     0.0000000     0.0000000     0.0000000     0.0000000     0.0000000
  0.00000000  1.54999995  0.00000000 -0.00032445     0.0000000     0.0000000     0.0000000     0.0000000     0.0000000     0.0000000     0.0000000     0.0000000     0.0000000     0.0000000     0.0000000     0.0000000
  0.50650001  1.54999995  0.00004292 -0.00032410     0.0000000     0.0000000     0.0000000     0.0000000     0.0000000     0.0000000     0.0000000     0.0000000     0.0000000     0.0000000     0.0000000     0.0000000
  1.01300001  1.54999995  0.00008679 -0.00032981     0.0000000     0.0000000     0.0000000     0.0000000     0.0000000     0.0000000     0.0000000     0.0000000     0.0000000     0.0000000     0.0000000     0.0000000
  1.51950002  1.54999995  0.00013304 -0.00033751     0.0000000     0.0000000     0.0000000     0.0000000     0.0000000     0.0000000     0.0000000     0.0000000     0.0000000     0.0000000     0.0000000     0.0000000
  2.02600002  1.54999995  0.00018325 -0.00035188     0.0000000     0.0000000     0.0000000     0.0000000     0.0000000     0.0000000     0.0000000     0.0000000     0.0000000     0.0000000     0.0000000     0.0000000
  2.53250003  1.54999995  0.00023513 -0.00036730     0.0000000     0.0000000     0.0000000     0.0000000     0.0000000     0.0000000     0.0000000     0.0000000     0.0000000     0.0000000     0.0000000     0.0000000
  3.03900003  1.54999995  0.00029288 -0.00039400     0.0000000     0.0000000     0.0000000     0.0000000     0.0000000     0.0000000     0.0000000     0.0000000     0.0000000     0.0000000     0.0000000     0.0000000
  0.00000000  2.32499981  0.00000000 -0.00055943     0.0000000     0.0000000     0.0000000     0.0000000     0.0000000     0.0000000     0.0000000     0.0000000     0.0000000     0.0000000     0.0000000     0.0000000
  1.01300001  2.32499981  0.00010525 -0.00056713     0.0000000     0.0000000     0.0000000     0.0000000     0.0000000     0.0000000     0.0000000     0.0000000     0.0000000     0.0000000     0.0000000     0.0000000
  2.02600002  2.32499981  0.00021054 -0.00059350     0.0000000     0.0000000     0.0000000     0.0000000     0.0000000     0.0000000     0.0000000     0.0000000     0.0000000     0.0000000     0.0000000     0.0000000
  3.03900003  2.32499981  0.00031273 -0.00063767     0.0000000     0.0000000     0.0000000     0.0000000     0.0000000     0.0000000     0.0000000     0.0000000     0.0000000     0.0000000     0.0000000     0.0000000
  0.00000000  3.09999990  0.00000000 -0.00081612     0.0000000     0.0000000     0.0000000     0.0000000     0.0000000     0.0000000     0.0000000     0.0000000     0.0000000     0.0000000     0.0000000     0.0000000
  0.50650001  3.09999990  0.00005716 -0.00081916     0.0000000     0.0000000     0.0000000     0.0000000     0.0000000     0.0000000     0.0000000     0.0000000     0.0000000     0.0000000     0.0000000     0.0000000
  1.01300001  3.09999990  0.00011418 -0.00082415     0.0000000     0.0000000     0.0000000     0.0000000     0.0000000     0.0000000     0.0000000     0.0000000     0.0000000     0.0000000     0.0000000     0.0000000
  1.51950002  3.09999990  0.00017155 -0.00083464     0.0000000     0.0000000     0.0000000     0.0000000     0.0000000     0.0000000     0.0000000     0.0000000     0.0000000     0.0000000     0.0000000     0.0000000
  2.02600002  3.09999990  0.00022682 -0.00084649     0.0000000     0.0000000     0.0000000     0.0000000     0.0000000     0.0000000     0.0000000     0.0000000     0.0000000     0.0000000     0.0000000     0.0000000
  2.53250003  3.09999990  0.00027958 -0.00086028     0.0000000     0.0000000     0.0000000     0.0000000     0.0000000     0.0000000     0.0000000     0.0000000     0.0000000     0.0000000     0.0000000     0.0000000
  3.03900003  3.09999990  0.00032488 -0.00087321     0.0000000     0.0000000     0.0000000     0.0000000     0.0000000     0.0000000     0.0000000     0.0000000     0.0000000     0.0000000     0.0000000     0.0000000
  0.00000000  3.87500000  0.00000000 -0.00107971     0.0000000     0.0000000     0.0000000     0.0000000     0.0000000     0.0000000     0.0000000     0.0000000     0.0000000     0.0000000     0.0000000     0.0000000
  1.01300001  3.87500000  0.00011416 -0.00108725     0.0000000     0.0000000     0.0000000     0.0000000     0.0000000     0.0000000     0.0000000     0.0000000     0.0000000     0.0000000     0.0000000     0.0000000
  2.02600002  3.87500000  0.00022470 -0.00110386     0.0000000     0.0000000     0.0000000     0.0000000     0.0000000     0.0000000     0.0000000     0.0000000     0.0000000     0.0000000     0.0000000     0.0000000
  3.03900003  3.87500000  0.00032612 -0.00111148     0.0000000     0.0000000     0.0000000     0.0000000     0.0000000     0.0000000     0.0000000     0.0000000     0.0000000     0.0000000     0.0000000     0.0000000
  0.00000000  4.64999962  0.00000000 -0.00134312     0.0000000     0.0000000     0.0000000     0.0000000     0.0000000     0.0000000     0.0000000     0.0000000     0.0000000     0.0000000     0.0000000     0.0000000
  0.50650001  4.64999962  0.00005667 -0.00134425     0.0000000     0.0000000     0.0000000     0.0000000     0.0000000     0.0000000     0.0000000     0.0000000     0.0000000     0.0000000     0.0000000     0.0000000
  1.01300001  4.64999962  0.00011263 -0.00134774     0.0000000     0.0000000     0.0000000     0.0000000     0.0000000     0.0000000     0.0000000     0.0000000     0.0000000     0.0000000     0.0000000     0.0000000
  1.51950002  4.64999962  0.00016710 -0.00135213     0.0000000     0.0000000     0.0000000     0.0000000     0.0000000     0.0000000     0.0000000     0.0000000     0.0000000     0.0000000     0.0000000     0.0000000
  2.02600002  4.64999962  0.00022003 -0.00135694     0.0000000     0.0000000     0.0000000     0.0000000     0.0000000     0.0000000     0.0000000     0.0000000     0.0000000     0.0000000     0.0000000     0.0000000
  2.53250003  4.64999962  0.00027202 -0.00135886     0.0000000     0.0000000     0.0000000     0.0000000     0.0000000     0.0000000     0.0000000     0.0000000     0.0000000     0.0000000     0.0000000     0.0000000
  3.03900003  4.64999962  0.00032447 -0.00135768     0.0000000     0.0000000     0.0000000     0.0000000     0.0000000     0.0000000     0.0000000     0.0000000     0.0000000     0.0000000     0.0000000     0.0000000
  0.00000000  5.42499971  0.00000000 -0.00160178     0.0000000     0.0000000     0.0000000     0.0000000     0.0000000     0.0000000     0.0000000     0.0000000     0.0000000     0.0000000     0.0000000     0.0000000
  1.01300001  5.42499971  0.00010945 -0.00160381     0.0000000     0.0000000     0.0000000     0.0000000     0.0000000     0.0000000     0.0000000     0.0000000     0.0000000     0.0000000     0.0000000     0.0000000
  2.02600002  5.42499971  0.00021601 -0.00160737     0.0000000     0.0000000     0.0000000     0.0000000     0.0000000     0.0000000     0.0000000     0.0000000     0.0000000     0.0000000     0.0000000     0.0000000
  3.03900003  5.42499971  0.00032025 -0.00160735     0.0000000     0.0000000     0.0000000     0.0000000     0.0000000     0.0000000     0.0000000     0.0000000     0.0000000     0.0000000     0.0000000     0.0000000
  0.00000000  6.19999981  0.00000000 -0.00185502     0.0000000     0.0000000     0.0000000     0.0000000     0.0000000     0.0000000     0.0000000     0.0000000     0.0000000     0.0000000     0.0000000     0.0000000
  0.50650001  6.19999981  0.00005354 -0.00185518     0.0000000     0.0000000     0.0000000     0.0000000     0.0000000     0.0000000     0.0000000     0.0000000     0.0000000     0.0000000     0.0000000     0.0000000
  1.01300001  6.19999981  0.00010686 -0.00185582     0.0000000     0.0000000     0.0000000     0.0000000     0.0000000     0.0000000     0.0000000     0.0000000     0.0000000     0.0000000     0.0000000     0.0000000
  1.51950002  6.19999981  0.00015987 -0.00185645     0.0000000     0.0000000     0.0000000     0.0000000     0.0000000     0.0000000     0.0000000     0.0000000     0.0000000     0.0000000     0.0000000     0.0000000
  2.02600002  6.19999981  0.00021258 -0.00185683     0.0000000     0.0000000     0.0000000     0.0000000     0.0000000     0.0000000     0.0000000     0.0000000     0.0000000     0.0000000     0.0000000     0.0000000
  2.53250003  6.19999981  0.00026490 -0.00185691     0.0000000     0.0000000     0.0000000     0.0000000     0.0000000     0.0000000     0.0000000     0.0000000     0.0000000     0.0000000     0.0000000     0.0000000
  3.03900003  6.19999981  0.00031689 -0.00185567     0.0000000     0.0000000     0.0000000     0.0000000     0.0000000     0.0000000     0.0000000     0.0000000     0.0000000     0.0000000     0.0000000     0.0000000
  0.00000000  6.97499990  0.00000000 -0.00210505     0.0000000     0.0000000     0.0000000     0.0000000     0.0000000     0.0000000     0.0000000     0.0000000     0.0000000     0.0000000     0.0000000     0.0000000
  1.01300001  6.97499990  0.00010541 -0.00210517     0.0000000     0.0000000     0.0000000     0.0000000     0.0000000     0.0000000     0.0000000     0.0000000     0.0000000     0.0000000     0.0000000     0.0000000
  2.02600002  6.97499990  0.00021014 -0.00210509     0.0000000     0.0000000     0.0000000     0.0000000     0.0000000     0.0000000     0.0000000     0.0000000     0.0000000     0.0000000     0.0000000     0.0000000
  3.03900003  6.97499990  0.00031422 -0.00210295     0.0000000     0.0000000     0.0000000     0.0000000     0.0000000     0.0000000     0.0000000     0.0000000     0.0000000     0.0000000     0.0000000     0.0000000
  0.00000000  7.75000000  0.00000000 -0.00235275     0.0000000     0.0000000     0.0000000     0.0000000     0.0000000     0.0000000     0.0000000     0.0000000     0.0000000     0.0000000     0.0000000     0.0000000
  0.50650001  7.75000000  0.00005210 -0.00235266     0.0000000     0.0000000     0.0000000     0.0000000     0.0000000     0.0000000     0.0000000     0.0000000     0.0000000     0.0000000     0.0000000     0.0000000
  1.01300001  7.75000000  0.00010417 -0.00235259     0.0000000     0.0000000     0.0000000     0.0000000     0.0000000     0.0000000     0.0000000     0.0000000     0.0000000     0.0000000     0.0000000     0.0000000
  1.51950002  7.75000000  0.00015612 -0.00235233     0.0000000     0.0000000     0.0000000     0.0000000     0.0000000     0.0000000     0.0000000     0.0000000     0.0000000     0.0000000     0.0000000     0.0000000
  2.02600002  7.75000000  0.00020800 -0.00235189     0.0000000     0.0000000     0.0000000     0.0000000     0.0000000     0.0000000     0.0000000     0.0000000     0.0000000     0.0000000     0.0000000     0.0000000
  2.53250003  7.75000000  0.00025978 -0.00235109     0.0000000     0.0000000     0.0000000     0.0000000     0.0000000     0.0000000     0.0000000     0.0000000     0.0000000     0.0000000     0.0000000     0.0000000
  3.03900003  7.75000000  0.00031167 -0.00234960     0.0000000     0.0000000     0.0000000     0.0000000     0.0000000     0.0000000     0.0000000     0.0000000     0.0000000     0.0000000     0.0000000     0.0000000
  0.00000000  8.52499962  0.00000000 -0.00259888     0.0000000     0.0000000     0.0000000     0.0000000     0.0000000     0.0000000     0.0000000     0.0000000     0.0000000     0.0000000     0.0000000     0.0000000
  1.01300001  8.52499962  0.00010336 -0.00259856     0.0000000     0.0000000     0.0000000     0.0000000     0.0000000     0.0000000     0.0000000     0.0000000     0.0000000     0.0000000     0.0000000     0.0000000
  2.02600002  8.52499962  0.00020650 -0.00259748     0.0000000     0.0000000     0.0000000     0.0000000     0.0000000     0.0000000     0.0000000     0.0000000     0.0000000     0.0000000     0.0000000     0.0000000
  3.03900003  8.52499962  0.00030955 -0.00259538     0.0000000     0.0000000     0.0000000     0.0000000     0.0000000     0.0000000     0.0000000     0.0000000     0.0000000     0.0000000     0.0000000     0.0000000
  0.00000000  9.30000019  0.00000000 -0.00284395     0.0000000     0.0000000     0.0000000     0.0000000     0.0000000     0.0000000     0.0000000     0.0000000     0.0000000     0.0000000     0.0000000     0.0000000
  0.50650001  9.30000019  0.00005135 -0.00284381     0.0000000     0.0000000     0.0000000     0.0000000     0.0000000     0.0000000     0.0000000     0.0000000     0.0000000     0.0000000     0.0000000     0.0000000
  1.01300001  9.30000019  0.00010264 -0.00284342     0.0000000     0.0000000     0.0000000     0.0000000     0.0000000     0.0000000     0.0000000     0.0000000     0.0000000     0.0000000     0.0000000     0.0000000
  1.51950002  9.30000019  0.00015389 -0.00284284     0.0000000     0.0000000     0.0000000     0.0000000     0.0000000     0.0000000     0.0000000     0.0000000     0.0000000     0.0000000     0.0000000     0.0000000
  2.02600002  9.30000019  0.00020508 -0.00284206     0.0000000     0.0000000     0.0000000     0.0000000     0.0000000     0.0000000     0.0000000     0.0000000     0.0000000     0.0000000     0.0000000     0.0000000
  2.53250003  9.30000019  0.00025627 -0.00284102     0.0000000     0.0000000     0.0000000     0.0000000     0.0000000     0.0000000     0.0000000     0.0000000     0.0000000     0.0000000     0.0000000     0.0000000
  3.03900003  9.30000019  0.00030751 -0.00284010     0.0000000     0.0000000     0.0000000     0.0000000     0.0000000     0.0000000     0.0000000     0.0000000     0.0000000     0.0000000     0.0000000     0.0000000
  0.00000000 10.07499981  0.00000000 -0.00308813     0.0000000     0.0000000     0.0000000     0.0000000     0.0000000     0.0000000     0.0000000     0.0000000     0.0000000     0.0000000     0.0000000     0.0000000
  1.01300001 10.07499981  0.00010205 -0.00308747     0.0000000     0.0000000     0.0000000     0.0000000     0.0000000     0.0000000     0.0000000     0.0000000     0.0000000     0.0000000     0.0000000     0.0000000
  2.02600002 10.07499981  0.00020399 -0.00308567     0.0000000     0.0000000     0.0000000     0.0000000     0.0000000     0.0000000     0.0000000     0.0000000     0.0000000     0.0000000     0.0000000     0.0000000
  3.03900003 10.07499981  0.00030567 -0.00308344     0.0000000     0.0000000     0.0000000     0.0000000     0.0000000     0.0000000     0.0000000     0.0000000     0.0000000     0.0000000     0.0000000     0.0000000
  0.00000000 10.85000038  0.00000000 -0.00333115     0.0000000     0.0000000     0.0000000     0.0000000     0.0000000     0.0000000     0.0000000     0.0000000     0.0000000     0.0000000     0.0000000     0.0000000
  0.50650001 10.85000038  0.00005057 -0.00333098     0.0000000     0.0000000     0.0000000     0.0000000     0.0000000     0.0000000     0.0000000     0.0000000     0.0000000     0.0000000     0.0000000     0.0000000
  1.01300001 10.85000038  0.00010116 -0.00333046     0.0000000     0.0000000     0.0000000     0.0000000     0.0000000     0.0000000     0.0000000     0.0000000     0.0000000     0.0000000     0.0000000     0.0000000
  1.51950002 10.85000038  0.00015174 -0.00332964     0.0000000     0.0000000     0.0000000     0.0000000     0.0000000     0.0000000     0.0000000     0.0000000     0.0000000     0.0000000     0.0000000     0.0000000
  2.02600002 10.85000038  0.00020229 -0.00332843     0.0000000     0.0000000     0.0000000     0.0000000     0.0000000     0.0000000     0.0000000     0.0000000     0.0000000     0.0000000     0.0000000     0.0000000
  2.53250003 10.85000038  0.00025288 -0.00332712     0.0000000     0.0000000     0.0000000     0.0000000     0.0000000     0.0000000     0.0000000     0.0000000     0.0000000     0.0000000     0.0000000     0.0000000
  3.03900003 10.85000038  0.00030333 -0.00332553     0.0000000     0.0000000     0.0000000     0.0000000     0.0000000     0.0000000     0.0000000     0.0000000     0.0000000     0.0000000     0.0000000     0.0000000
  0.00000000 11.62500000  0.00000000 -0.00357325     0.0000000     0.0000000     0.0000000     0.0000000     0.0000000     0.0000000     0.0000000     0.0000000     0.0000000     0.0000000     0.0000000     0.0000000
  1.01300001 11.62500000  0.00010077 -0.00357266     0.0000000     0.0000000     0.0000000     0.0000000     0.0000000     0.0000000     0.0000000     0.0000000     0.0000000     0.0000000     0.0000000     0.0000000
  2.02600002 11.62500000  0.00020167 -0.00357067     0.0000000     0.0000000     0.0000000     0.0000000     0.0000000     0.0000000     0.0000000     0.0000000     0.0000000     0.0000000     0.0000000     0.0000000
  3.03900003 11.62500000  0.00030229 -0.00356710     0.0000000     0.0000000     0.0000000     0.0000000     0.0000000     0.0000000     0.0000000     0.0000000     0.0000000     0.0000000     0.0000000     0.0000000
  0.00000000 12.40000057  0.00000000 -0.00381360     0.0000000     0.0000000     0.0000000     0.0000000     0.0000000     0.0000000     0.0000000     0.0000000     0.0000000     0.0000000     0.0000000     0.0000000
  0.50650001 12.40000057  0.00004958 -0.00381338     0.0000000     0.0000000     0.0000000     0.0000000     0.0000000     0.0000000     0.0000000     0.0000000     0.0000000     0.0000000     0.0000000     0.0000000
  1.01300001 12.40000057  0.00009913 -0.00381291     0.0000000     0.0000000     0.0000000     0.0000000     0.0000000     0.0000000     0.0000000     0.0000000     0.0000000     0.0000000     0.0000000     0.0000000
  1.51950002 12.40000057  0.00014863 -0.00381221     0.0000000     0.0000000     0.0000000     0.0000000     0.0000000     0.0000000     0.0000000     0.0000000     0.0000000     0.0000000     0.0000000     0.0000000
  2.02600002 12.40000057  0.00019818 -0.00381112     0.0000000     0.0000000     0.0000000     0.0000000     0.0000000     0.0000000     0.0000000     0.0000000     0.0000000     0.0000000     0.0000000     0.0000000
  2.53250003 12.40000057  0.00024776 -0.00380941     0.0000000     0.0000000     0.0000000     0.0000000     0.0000000     0.0000000     0.0000000     0.0000000     0.0000000     0.0000000     0.0000000     0.0000000
  3.03900003 12.40000057  0.00029713 -0.00380699     0.0000000     0.0000000     0.0000000     0.0000000     0.0000000     0.0000000     0.0000000     0.0000000     0.0000000     0.0000000     0.0000000     0.0000000
           1           3          14          12
           3           5          16          14
           5           7          18          16
          12          14          25          23
          14          16          27          25
          16          18          29          27
          23          25          36          34
          25          27          38          36
          27          29          40          38
          34          36          47          45
          36          38          49          47
          38          40          51          49
          45          47          58          56
          47          49          60          58
          49          51          62          60
          56          58          69          67
          58          60          71          69
          60          62          73          71
          67          69          80          78
          69          71          82          80
          71          73          84          82
          78          80          91          89
          80          82          93          91
          82          84          95          93
 ZONE T="STRESS & STRAIN", I=  216, F=POINT
  0.11416677  0.17468756  0.00000000  0.00000000     0.0000120     0.0000120    -0.0001427     0.0000081   -16.5895349   -16.5903001   -21.5025062     0.1279186   -21.5058346   -16.5902996   -16.5862064     1.4904585
  0.11416677  0.77499998  0.00000000  0.00000000     0.0000484     0.0000483    -0.0002089     0.0000082   -12.5042387   -12.5071631   -19.5431858     0.1116038   -19.5449543   -12.5071630   -12.5024700     0.9081311
  0.11416677  1.37531245  0.00000000  0.00000000     0.0000772     0.0000770    -0.0002751     0.0000083   -13.5800179   -13.5855367   -23.8314301     0.1204353   -23.8328457   -13.5855370   -13.5786028     0.6729966
  0.50650001  0.17468756  0.00000000  0.00000000     0.0000122     0.0000121    -0.0001429     0.0000334   -16.3654578   -16.3688096   -21.2273136     0.5239430   -21.2831364   -16.3688087   -16.3096352     6.0815077
  0.50650001  0.77499998  0.00000000  0.00000000     0.0000491     0.0000486    -0.0002091     0.0000250   -12.0739292   -12.0865941   -18.9690263     0.3341746   -18.9851837   -12.0865936   -12.0577707     2.7682223
  0.50650001  1.37531245  0.00000000  0.00000000     0.0000785     0.0000777    -0.0002753     0.0000167   -12.8230742   -12.8466693   -22.7430552     0.2334444   -22.7485466   -12.8466692   -12.8175840     1.3473325
  0.89883322  0.17468756  0.00000000  0.00000000     0.0000123     0.0000121    -0.0001454     0.0000592   -17.2704320   -17.2765903   -22.3912859     0.9601580   -22.5653954   -17.2765903   -17.0963230    10.2780016
  0.89883322  0.77499998  0.00000000  0.00000000     0.0000498     0.0000490    -0.0002116     0.0000423   -12.6101710   -12.6333563   -19.8126580     0.5822123   -19.8594170   -12.6333561   -12.5634117     4.5917681
  0.89883322  1.37531245  0.00000000  0.00000000     0.0000798     0.0000783    -0.0002778     0.0000254   -13.0723880   -13.1149670   -23.2683649     0.3620542   -23.2812042   -13.1149673   -13.0595474     2.0311352
  1.12716675  0.17468756  0.00000000  0.00000000     0.0000137     0.0000123    -0.0001463     0.0000778   -16.6374818   -16.6826122   -21.6864354     1.2279902   -21.9692612   -16.6826115   -16.3546562    12.9699208
  1.12716675  0.77499998  0.00000000  0.00000000     0.0000538     0.0000495    -0.0002135     0.0000614   -11.3259226   -11.4355294   -18.1752671     0.7863739   -18.2643909   -11.4355297   -11.2367983     6.4660468
  1.12716675  1.37531245  0.00000000  0.00000000     0.0000828     0.0000789    -0.0002808     0.0000393   -12.8870734   -12.9986454   -23.2276600     0.5593407   -23.2578278   -12.9986458   -12.8569059     3.0872239
  1.51950002  0.17468756  0.00000000  0.00000000     0.0000144     0.0000128    -0.0001468     0.0001073   -16.2964089   -16.3478961   -21.3115764     1.6678312   -21.8155766   -16.3478966   -15.7924089    16.8142335
  1.51950002  0.77499998  0.00000000  0.00000000     0.0000568     0.0000510    -0.0002177     0.0000796   -10.9980098   -11.1440326   -17.8979552     1.0002360   -18.0400276   -11.1440325   -10.8559380     8.0841173
  1.51950002  1.37531245  0.00000000  0.00000000     0.0000882     0.0000806    -0.0002887     0.0000464   -12.7385819   -12.9528138   -23.3742527     0.6542592   -23.4143486   -12.9528141   -12.6984863     3.5069579
  1.91183329  0.17468756  0.00000000  0.00000000     0.0000151     0.0000132    -0.0001500     0.0001382   -17.4314343   -17.4945529   -22.8349822     2.2618295   -23.6567650   -17.4945526   -16.6096516    19.9674375
  1.91183329  0.77499998  0.00000000  0.00000000     0.0000599     0.0000525    -0.0002246     0.0000994   -11.8354420   -12.0306111   -19.4019897     1.3217276   -19.6262245   -12.0306110   -11.6112070     9.6287060
  1.91183329  1.37531245  0.00000000  0.00000000     0.0000936     0.0000827    -0.0002991     0.0000549   -13.6665573   -13.9894944   -25.3480429     0.8169562   -25.4049015   -13.9894943   -13.6096992     3.9812075
  2.14016676  0.17468756  0.00000000  0.00000000     0.0000201     0.0000136    -0.0001534     0.0001584   -16.2029397   -16.4050921   -21.6272043     2.4751861   -22.5868855   -16.4050922   -15.2432594    21.1923303
  2.14016676  0.77499998  0.00000000  0.00000000     0.0000719     0.0000539    -0.0002286     0.0001114    -8.2089344    -8.5874331   -14.5290277     1.1708962   -14.7389803    -8.5874329    -7.9989820    10.1656216
  2.14016676  1.37531245  0.00000000  0.00000000     0.0000970     0.0000840    -0.0003038     0.0000667   -13.6583115   -14.0470224   -25.6707790     0.9987993   -25.7532597   -14.0470228   -13.5758305     4.7207666
  2.53250003  0.17468756  0.00000000  0.00000000     0.0000211     0.0000147    -0.0001633     0.0002002   -18.5289110   -18.7436216   -24.7157666     3.3586680   -26.1885128   -18.7436218   -17.0561638    23.6770266
  2.53250003  0.77499998  0.00000000  0.00000000     0.0000764     0.0000571    -0.0002370     0.0001290    -8.1685389    -8.5747980   -14.7473767     1.3540066   -15.0151491    -8.5747976    -7.9007664    11.1866409
  2.53250003  1.37531245  0.00000000  0.00000000     0.0001050     0.0000866    -0.0003107     0.0000601   -12.0689291   -12.5817507   -23.7099431     0.8416511   -23.7704792   -12.5817509   -12.0083923     4.1139975
  2.92483330  0.17468756  0.00000000  0.00000000     0.0000221     0.0000157    -0.0001775     0.0002443   -23.5317607   -23.7834051   -31.2774962     4.7399455   -33.5255928   -23.7834053   -21.2836647    25.3743830
  2.92483330  0.77499998  0.00000000  0.00000000     0.0000809     0.0000600    -0.0002497     0.0001489    -9.5506737   -10.0402678   -17.2783893     1.7403736   -17.6522541   -10.0402679    -9.1768084    12.1239676
  2.92483330  1.37531245  0.00000000  0.00000000     0.0001129     0.0000896    -0.0003219     0.0000558   -12.0600169   -12.7221949   -24.4248070     0.7936854   -24.4755440   -12.7221947   -12.0092793     3.6577604
  0.11416677  1.72468746  0.00000000  0.00000000     0.0000893     0.0000891    -0.0002965     0.0000058   -12.5086257   -12.5138966   -23.4362196     0.0818209   -23.4368324   -12.5138969   -12.5080128     0.4289730
  0.11416677  2.32499981  0.00000000  0.00000000     0.0001033     0.0001032    -0.0003179     0.0000007    -9.5432126    -9.5453897   -19.6343444     0.0077898   -19.6343498    -9.5453901    -9.5432062     0.0442294
  0.11416677  2.92531228  0.00000000  0.00000000     0.0001116     0.0001116    -0.0003394    -0.0000033   -10.9317922   -10.9316769   -22.9122962    -0.0436203   -22.9124546   -10.9316769   -10.9316330    -0.2086070
  0.50650001  1.72468746  0.00000000  0.00000000     0.0000906     0.0000898    -0.0002987     0.0000080   -12.5261698   -12.5495777   -23.5645536     0.1129261   -23.5657082   -12.5495777   -12.5250149     0.5860717
  0.50650001  2.32499981  0.00000000  0.00000000     0.0001039     0.0001035    -0.0003194     0.0000016    -9.7112284    -9.7210143   -19.9860019     0.0192906   -19.9860382    -9.7210140    -9.7111921     0.1075706
  0.50650001  2.92531228  0.00000000  0.00000000     0.0001115     0.0001116    -0.0003401    -0.0000036   -11.2797298   -11.2792061   -23.5608184    -0.0488650   -23.5610123   -11.2795353   -11.2792063    -0.2279682
  0.89883322  1.72468746  0.00000000  0.00000000     0.0000919     0.0000904    -0.0002994     0.0000097   -11.9000228   -11.9401211   -22.6081340     0.1331017   -22.6097889   -11.9401207   -11.8983688     0.7120391
  0.89883322  2.32499981  0.00000000  0.00000000     0.0001045     0.0001038    -0.0003193     0.0000021    -9.3158807    -9.3327691   -19.3196994     0.0247967   -19.3197613    -9.3327694    -9.3158188     0.1420194
  0.89883322  2.92531228  0.00000000  0.00000000     0.0001115     0.0001116    -0.0003392    -0.0000043   -11.0155639   -11.0146478   -23.0967415    -0.0580570   -23.0970211   -11.0152845   -11.0146475    -0.2753304