 TITLE ="GEORGIA TECH TEST PIT GRID (linear elastic)                                     "
 VARIABLES = "R","Z","DISP_R","DISP_Z","EPSR","EPSTH","EPSZ","EPSRZ","SIGMAR","SIGMATH","SIGMAZ","SIGMARZ"
 ZONE T="GEOMETRY & DISP", N=  475, E=  140, F=FEPOINT, ET=QUADRILATERAL
  0.00000000  0.00000000  0.00000000  0.00000000     0.0000000     0.0000000    -0.0001582     0.0000000    -3.3904941    -3.3904941    -5.0857408     0.0000000
  0.69999999  0.00000000  0.00000000  0.00000000     0.0000000     0.0000000    -0.0001582     0.0000017    -3.3906873    -3.3906873    -5.0860306     0.0091818
  1.39999998  0.00000000  0.00000000  0.00000000     0.0000000     0.0000000    -0.0001582     0.0000034    -3.3898112    -3.3898112    -5.0847164     0.0183494
  2.97499990  0.00000000  0.00000000  0.00000000     0.0000000     0.0000000    -0.0001581     0.0000073    -3.3888594    -3.3888594    -5.0832888     0.0388729
  4.55000019  0.00000000  0.00000000  0.00000000     0.0000000     0.0000000    -0.0001579     0.0000110    -3.3826076    -3.3826076    -5.0739111     0.0591047
  7.05000019  0.00000000  0.00000000  0.00000000     0.0000000     0.0000000    -0.0001575     0.0000169    -3.3748617    -3.3748617    -5.0622923     0.0903098
  9.55000019  0.00000000  0.00000000  0.00000000     0.0000000     0.0000000    -0.0001566     0.0000224    -3.3552002    -3.3552002    -5.0328000     0.1198946
 13.55000019  0.00000000  0.00000000  0.00000000     0.0000000     0.0000000    -0.0001554     0.0000303    -3.3299401    -3.3299401    -4.9949099     0.1623616
 17.54999924  0.00000000  0.00000000  0.00000000     0.0000000     0.0000000    -0.0001533     0.0000370    -3.2840860    -3.2840860    -4.9261288     0.1981160
 25.04999924  0.00000000  0.00000000  0.00000000     0.0000000     0.0000000    -0.0001487     0.0000448    -3.1854827    -3.1854827    -4.7782238     0.2399162
 32.54999924  0.00000000  0.00000000  0.00000000     0.0000000     0.0000000    -0.0001442     0.0000478    -3.0905948    -3.0905948    -4.6358920     0.2559534
 42.54999924  0.00000000  0.00000000  0.00000000     0.0000000     0.0000000    -0.0001365     0.0000426    -2.9240081    -2.9240081    -4.3860118     0.2284600
 52.54999924  0.00000000  0.00000000  0.00000000     0.0000000     0.0000000    -0.0001327     0.0000332    -2.8433391    -2.8433391    -4.2650084     0.1778177
 65.05000305  0.00000000  0.00000000  0.00000000     0.0000000     0.0000000    -0.0001277     0.0000166    -2.7369707    -2.7369707    -4.1054558     0.0888140
 77.55000305  0.00000000  0.00000000  0.00000000     0.0000000     0.0000000    -0.0001272     0.0000000    -2.7263990    -2.7263990    -4.0895983     0.0000000
  0.00000000 10.00000000  0.00000000 -0.00166990     0.0000223     0.0000223    -0.0001758    -0.0000002    -2.5734590    -2.5734590    -4.6951180    -0.0008722
  1.39999998 10.00000000  0.00003112 -0.00166913     0.0000222     0.0000222    -0.0001756     0.0000038    -2.5730950    -2.5730176    -4.6929637     0.0205086
  4.55000019 10.00000000  0.00010012 -0.00166167     0.0000216     0.0000220    -0.0001745     0.0000126    -2.5728906    -2.5686151    -4.6737925     0.0673104
  9.55000019 10.00000000  0.00020232 -0.00163450     0.0000192     0.0000212    -0.0001703     0.0000253    -2.5775156    -2.5566302    -4.6085171     0.1354665
 17.54999924 10.00000000  0.00033119 -0.00156130     0.0000126     0.0000189    -0.0001590     0.0000410    -2.5981054    -2.5308130    -4.4366053     0.2195603
 32.54999924 10.00000000  0.00041809 -0.00138623    -0.0000015     0.0000128    -0.0001330     0.0000480    -2.6223413    -2.4689931    -4.0318099     0.2573363
 52.54999924 10.00000000  0.00028533 -0.00120737    -0.0000112     0.0000054    -0.0001088     0.0000296    -2.5747478    -2.3965697    -3.6202883     0.1583415
 77.55000305 10.00000000  0.00000000 -0.00113592    -0.0000114     0.0000000    -0.0001000    -0.0000007    -2.5077597    -2.3857797    -3.4566893    -0.0038489
  0.00000000 20.00000000  0.00000000 -0.00351513     0.0000401     0.0000401    -0.0002981     0.0000003    -2.2954771    -2.2954771    -4.4945807     0.0011970
  0.69999999 20.00000000  0.00002801 -0.00351441     0.0000400     0.0000400    -0.0002980     0.0000052    -2.2966940    -2.2964110    -4.4947081     0.0156113
  1.39999998 20.00000000  0.00005597 -0.00351269     0.0000400     0.0000400    -0.0002978     0.0000105    -2.2948062    -2.2946396    -4.4911769     0.0319201
  2.97499990 20.00000000  0.00011843 -0.00350361     0.0000393     0.0000398    -0.0002969     0.0000218    -2.2983912    -2.2946883    -4.4833412     0.0657791
  4.55000019 20.00000000  0.00017981 -0.00348959     0.0000387     0.0000395    -0.0002951     0.0000332    -2.2938447    -2.2877666    -4.4629564     0.1004075
  7.05000019 20.00000000  0.00027377 -0.00345359     0.0000364     0.0000388    -0.0002912     0.0000496    -2.3026844    -2.2842389    -4.4272749     0.1498574
  9.55000019 20.00000000  0.00036168 -0.00340648     0.0000341     0.0000379    -0.0002854     0.0000654    -2.2951440    -2.2666692    -4.3656772     0.1980558
 13.55000019 20.00000000  0.00048594 -0.00330287     0.0000279     0.0000359    -0.0002744     0.0000849    -2.3096584    -2.2501816    -4.2571938     0.2568210
 17.54999924 20.00000000  0.00058514 -0.00318005     0.0000216     0.0000333    -0.0002611     0.0001007    -2.3098962    -2.2220937    -4.1205488     0.3052548
 25.04999924 20.00000000  0.00069906 -0.00291848     0.0000088     0.0000279    -0.0002309     0.0001081    -2.2835478    -2.1400754    -3.7991872     0.3276986
 32.54999924 20.00000000  0.00071679 -0.00266037    -0.0000037     0.0000220    -0.0002049     0.0001045    -2.2922393    -2.0994352    -3.5344085     0.3156234
 42.54999924 20.00000000  0.00064034 -0.00237793    -0.0000120     0.0000150    -0.0001744     0.0000811    -2.1896248    -1.9870064    -3.1729300     0.2470235
 52.54999924 20.00000000  0.00047746 -0.00217568    -0.0000199     0.0000091    -0.0001547     0.0000545    -2.1826446    -1.9653857    -2.9693227     0.1645792
 65.05000305 20.00000000  0.00023838 -0.00204265    -0.0000191     0.0000037    -0.0001420     0.0000256    -2.0839471    -1.9132251    -2.7953089     0.0777865
 77.55000305 20.00000000  0.00000000 -0.00199903    -0.0000190     0.0000000    -0.0001375    -0.0000001    -2.0743525    -1.9315393    -2.7544956    -0.0003256
  0.00000000 25.00000000  0.00000000 -0.00563360     0.0000776     0.0000776    -0.0004445    -0.0000001    -2.1478902    -2.1478902    -4.3855841    -0.0002948
  1.39999998 25.00000000  0.00010835 -0.00562859     0.0000774     0.0000774    -0.0004439     0.0000165    -2.1470888    -2.1469316    -4.3811462     0.0353146
  4.55000019 25.00000000  0.00034707 -0.00558203     0.0000742     0.0000763    -0.0004380     0.0000528    -2.1461048    -2.1372157    -4.3411311     0.1130691
  9.55000019 25.00000000  0.00068983 -0.00541641     0.0000626     0.0000722    -0.0004172     0.0001030    -2.1512830    -2.1101411    -4.2075774     0.2207074
 17.54999924 25.00000000  0.00108224 -0.00498831     0.0000335     0.0000617    -0.0003659     0.0001528    -2.1767572    -2.0561866    -3.8887040     0.3275150
 32.54999924 25.00000000  0.00122888 -0.00404786    -0.0000132     0.0000378    -0.0002669     0.0001437    -2.1335868    -1.9154046    -3.2212289     0.3080052
 52.54999924 25.00000000  0.00074835 -0.00322186    -0.0000327     0.0000142    -0.0001940     0.0000683    -1.9613493    -1.7600283    -2.6523336     0.1463453
 77.55000305 25.00000000  0.00000000 -0.00293536    -0.0000281     0.0000000    -0.0001722    -0.0000005    -1.8365718    -1.7162732    -2.4541111    -0.0010106
  0.00000000 30.00000000  0.00000000 -0.00796059     0.0001080     0.0001080    -0.0004843     0.0000002    -1.8375242    -1.8375242    -4.3760379     0.0004093
  0.69999999 30.00000000  0.00007548 -0.00795835     0.0001077     0.0001078    -0.0004841     0.0000101    -1.8406522    -1.8400017    -4.3768268     0.0216669
  1.39999998 30.00000000  0.00015075 -0.00795192     0.0001076     0.0001077    -0.0004834     0.0000205    -1.8367243    -1.8364331    -4.3695566     0.0440182
  2.97499990 30.00000000  0.00031844 -0.00792082     0.0001051     0.0001070    -0.0004803     0.0000428    -1.8479624    -1.8396060    -4.3566270     0.0916307
  4.55000019 30.00000000  0.00048178 -0.00786926     0.0001026     0.0001059    -0.0004749     0.0000649    -1.8436753    -1.8296691    -4.3187849     0.1390814
  7.05000019 30.00000000  0.00072757 -0.00774523     0.0000937     0.0001032    -0.0004624     0.0000951    -1.8737119    -1.8331030    -4.2570681     0.2038886
  9.55000019 30.00000000  0.00095041 -0.00757816     0.0000842     0.0000995    -0.0004456     0.0001241    -1.8836578    -1.8181852    -4.1545970     0.2658529
 13.55000019 30.00000000  0.00124484 -0.00723599     0.0000633     0.0000919    -0.0004118     0.0001516    -1.9287802    -1.8062291    -3.9648420     0.3248435
 17.54999924 30.00000000  0.00145661 -0.00683926     0.0000407     0.0000830    -0.0003750     0.0001745    -1.9796256    -1.7983206    -3.7611406     0.3739250
 25.04999924 30.00000000  0.00163274 -0.00604158     0.0000082     0.0000652    -0.0003045     0.0001664    -1.9456319    -1.7014027    -3.2855630     0.3565427
 32.54999924 30.00000000  0.00157949 -0.00532976    -0.0000223     0.0000485    -0.0002469     0.0001442    -1.9873999    -1.6837525    -2.9498589     0.3090110
 42.54999924 30.00000000  0.00130367 -0.00459374    -0.0000329     0.0000306    -0.0001953     0.0001007    -1.8340953    -1.5617665    -2.5298975     0.2158271
 52.54999924 30.00000000  0.00092140 -0.00411532    -0.0000420     0.0000175    -0.0001638     0.0000587    -1.7944347    -1.5391249    -2.3163828     0.1257706
 65.05000305 30.00000000  0.00043775 -0.00381355    -0.0000369     0.0000067    -0.0001471     0.0000262    -1.6768549    -1.4900613    -2.1492389     0.0562454
 77.55000305 30.00000000  0.00000000 -0.00372065    -0.0000332     0.0000000    -0.0001421    -0.0000009    -1.6445893    -1.5023743    -2.1113464    -0.0019793
  0.00000000 33.00000000  0.00000000 -0.00945135     0.0001260     0.0001260    -0.0005114     0.0000000    -1.6827579    -1.6827579    -4.4147153    -0.0000321
  1.39999998 33.00000000  0.00017587 -0.00943925     0.0001256     0.0001256    -0.0005102     0.0000258    -1.6815508    -1.6814730    -4.4064036     0.0552817
  4.55000019 33.00000000  0.00056089 -0.00932674     0.0001189     0.0001233    -0.0004988     0.0000815    -1.6897535    -1.6710213    -4.3368838     0.1746656
  9.55000019 33.00000000  0.00109686 -0.00893393     0.0000949     0.0001149    -0.0004601     0.0001531    -1.7396608    -1.6539408    -4.1180150     0.3280700
 17.54999924 33.00000000  0.00165115 -0.00796188     0.0000411     0.0000941    -0.0003729     0.0002029    -1.8611230    -1.6341153    -3.6354078     0.4348109
 32.54999924 33.00000000  0.00173096 -0.00604843    -0.0000280     0.0000532    -0.0002311     0.0001496    -1.8854764    -1.5375314    -2.7560318     0.3206779
 52.54999924 33.00000000  0.00097938 -0.00458287    -0.0000453     0.0000186    -0.0001475     0.0000528    -1.6861977    -1.4123494    -2.1242317     0.1131925
 77.55000305 33.00000000  0.00000000 -0.00412436    -0.0000346     0.0000000    -0.0001269    -0.0000011    -1.5332546    -1.3847641    -1.9286556    -0.0024616
  0.00000000 36.00000000  0.00000000 -0.01102910     0.0001450     0.0001450    -0.0005405     0.0000001    -1.5257467    -1.5257467    -4.4636247     0.0002293
  0.69999999 36.00000000  0.00010131 -0.01102506     0.0001445     0.0001447    -0.0005401     0.0000160    -1.5315448    -1.5303935    -4.4654139     0.0342300
  1.39999998 36.00000000  0.00020225 -0.01101311     0.0001443     0.0001445    -0.0005389     0.0000324    -1.5255539    -1.5248432    -4.4534995     0.0693583
  2.97499990 36.00000000  0.00042633 -0.01095651     0.0001399     0.0001433    -0.0005335     0.0000670    -1.5462836    -1.5316162    -4.4323316     0.1436182
  4.55000019 36.00000000  0.00064288 -0.01086183     0.0001353     0.0001413    -0.0005244     0.0001016    -1.5443611    -1.5185790    -4.3714658     0.2177132
  7.05000019 36.00000000  0.00096262 -0.01063760     0.0001203     0.0001365    -0.0005035     0.0001451    -1.5978838    -1.5284258    -4.2713001     0.3109385
  9.55000019 36.00000000  0.00124455 -0.01033873     0.0001039     0.0001303    -0.0004764     0.0001868    -1.6304046    -1.5172784    -4.1175826     0.4003847
 13.55000019 36.00000000  0.00159491 -0.00974219     0.0000725     0.0001177    -0.0004244     0.0002139    -1.6965214    -1.5029757    -3.8264973     0.4584166
 17.54999924 36.00000000  0.00182491 -0.00907657     0.0000392     0.0001040    -0.0003718     0.0002345    -1.7920139    -1.5143579    -3.5536310     0.5024910
 25.04999924 36.00000000  0.00196164 -0.00780051     0.0000005     0.0000783    -0.0002822     0.0002000    -1.7406761    -1.4073147    -2.9522477     0.4285683
 32.54999924 36.00000000  0.00183278 -0.00671658    -0.0000343     0.0000563    -0.0002151     0.0001552    -1.8017227    -1.4135013    -2.5766295     0.3325555
 42.54999924 36.00000000  0.00145692 -0.00566153    -0.0000415     0.0000342    -0.0001610     0.0000967    -1.6198928    -1.2952752    -2.1318976     0.2071939
 52.54999924 36.00000000  0.00100270 -0.00500013    -0.0000474     0.0000191    -0.0001307     0.0000469    -1.5659521    -1.2809695    -1.9226851     0.1004069
 65.05000305 36.00000000  0.00046771 -0.00460194    -0.0000401     0.0000072    -0.0001156     0.0000201    -1.4446917    -1.2419859    -1.7681232     0.0430562
 77.55000305 36.00000000  0.00000000 -0.00448210    -0.0000347     0.0000000    -0.0001114    -0.0000015    -1.4014731    -1.2526489    -1.7301492    -0.0033142
  0.00000000 38.00000000  0.00000000 -0.01213863     0.0001589     0.0001589    -0.0005689     0.0000000    -1.4711846    -1.4711846    -4.5905547    -0.0000585
  1.39999998 38.00000000  0.00022152 -0.01211876     0.0001581     0.0001582    -0.0005669     0.0000386    -1.4698892    -1.4694689    -4.5772102     0.0826155
  4.55000019 38.00000000  0.00070220 -0.01193442     0.0001469     0.0001543    -0.0005485     0.0001205    -1.4893127    -1.4575407    -4.4694999     0.2582229
  9.55000019 38.00000000  0.00134535 -0.01130401     0.0001088     0.0001409    -0.0004889     0.0002168    -1.5837488    -1.4463887    -4.1453422     0.4646537
 17.54999924 38.00000000  0.00193209 -0.00981768     0.0000353     0.0001101    -0.0003677     0.0002578    -1.7537528    -1.4332409    -3.4807124     0.5523651
 32.54999924 38.00000000  0.00187543 -0.00713506    -0.0000386     0.0000576    -0.0002026     0.0001571    -1.7384762    -1.3262785    -2.4414726     0.3365527
 52.54999924 38.00000000  0.00099917 -0.00525083    -0.0000478     0.0000190    -0.0001201     0.0000422    -1.4809793    -1.1946499    -1.7908509     0.0904071
 77.55000305 38.00000000  0.00000000 -0.00469557    -0.0000341     0.0000000    -0.0001022    -0.0000017    -1.3142539    -1.1682415    -1.6063498    -0.0036409
  0.00000000 40.00000000  0.00000000 -0.01330483     0.0001742     0.0001742    -0.0005979     0.0000001    -1.3913031    -1.3913031    -4.7003377     0.0001638
  0.69999999 40.00000000  0.00012166 -0.01329879     0.0001734     0.0001738    -0.0005972     0.0000228    -1.4002071    -1.3984011    -4.7028576     0.0488210
  1.39999998 40.00000000  0.00024274 -0.01328076     0.0001731     0.0001734    -0.0005954     0.0000460    -1.3910361    -1.3899633    -4.6846132     0.0985984
  2.97499990 40.00000000  0.00051048 -0.01319652     0.0001663     0.0001716    -0.0005868     0.0000945    -1.4216902    -1.3988659    -4.6493048     0.2023975
  4.55000019 40.00000000  0.00076646 -0.01305567     0.0001590     0.0001685    -0.0005728     0.0001428    -1.4220309    -1.3814677    -4.5584438     0.3060458
  7.05000019 40.00000000  0.00113648 -0.01272625     0.0001368     0.0001612    -0.0005410     0.0001985    -1.4961850    -1.3917593    -4.4012595     0.4253540
  9.55000019 40.00000000  0.00145065 -0.01229426     0.0001127     0.0001519    -0.0005018     0.0002513    -1.5503997    -1.3822289    -4.1836801     0.5385322
 13.55000019 40.00000000  0.00181650 -0.01145296     0.0000721     0.0001341    -0.0004306     0.0002723    -1.6150352    -1.3494996    -3.7695983     0.5834255
 17.54999924 40.00000000  0.00202745 -0.01054718     0.0000299     0.0001155    -0.0003631     0.0002836    -1.7377797    -1.3709050    -3.4223504     0.6076706
 25.04999924 40.00000000  0.00209285 -0.00888609    -0.0000090     0.0000835    -0.0002609     0.0002239    -1.6362083    -1.2394738    -2.7156807     0.4798797
 32.54999924 40.00000000  0.00189209 -0.00752696    -0.0000431     0.0000581    -0.0001897     0.0001587    -1.6817416    -1.2480214    -2.3102421     0.3400097
 42.54999924 40.00000000  0.00145578 -0.00625707    -0.0000456     0.0000342    -0.0001370     0.0000912    -1.4677074    -1.1255240    -1.8593019     0.1953855
 52.54999924 40.00000000  0.00097950 -0.00548053    -0.0000476     0.0000186    -0.0001095     0.0000371    -1.3906860    -1.1067647    -1.6558163     0.0795837
 65.05000305 40.00000000  0.00044967 -0.00502607    -0.0000392     0.0000069    -0.0000964     0.0000152    -1.2709828    -1.0734427    -1.5163151     0.0325135
 77.55000305 40.00000000  0.00000000 -0.00489100    -0.0000328     0.0000000    -0.0000931    -0.0000020    -1.2190752    -1.0786414    -1.4775284    -0.0042207
  0.00000000 41.00000000  0.00000000 -0.01391267     0.0001826     0.0001826    -0.0006172     0.0000001    -1.3775359    -1.3775359    -4.8050736     0.0001756
  1.39999998 41.00000000  0.00025424 -0.01388574     0.0001814     0.0001816    -0.0006143     0.0000507    -1.3766591    -1.3757725    -4.7867976     0.1086481
  4.55000019 41.00000000  0.00080110 -0.01363637     0.0001653     0.0001761    -0.0005885     0.0001568    -1.4098639    -1.3637622    -4.6405239     0.3359745
  9.55000019 41.00000000  0.00150467 -0.01279966     0.0001138     0.0001576    -0.0005086     0.0002714    -1.5459952    -1.3585101    -4.2136297     0.5815109
 17.54999924 41.00000000  0.00207145 -0.01090931     0.0000263     0.0001180    -0.0003598     0.0002961    -1.7338280    -1.3408295    -3.3887197     0.6344635
 32.54999924 41.00000000  0.00189101 -0.00771350    -0.0000452     0.0000581    -0.0001829     0.0001582    -1.6509530    -1.2083610    -2.2413814     0.3390988
 52.54999924 41.00000000  0.00096344 -0.00558738    -0.0000472     0.0000183    -0.0001043     0.0000343    -1.3438231    -1.0630551    -1.5888223     0.0735485
 77.55000305 41.00000000  0.00000000 -0.00498187    -0.0000319     0.0000000    -0.0000888    -0.0000021    -1.1714783    -1.0346795    -1.4152205    -0.0044176
  0.00000000 42.00000000  0.00000000 -0.01453918     0.0001915     0.0001915    -0.0006358     0.0000001    -1.3455606    -1.3455606    -4.8911424     0.0002374
  0.69999999 42.00000000  0.00013367 -0.01453169     0.0001904     0.0001910    -0.0006350     0.0000277    -1.3585029    -1.3560963    -4.8961163     0.0593969
  1.39999998 42.00000000  0.00026656 -0.01450937     0.0001901     0.0001904    -0.0006326     0.0000559    -1.3459801    -1.3448628    -4.8721321     0.1197961
  2.97499990 42.00000000  0.00055976 -0.01440567     0.0001813     0.0001882    -0.0006218     0.0001140    -1.3851835    -1.3559245    -4.8269657     0.2442431
  4.55000019 42.00000000  0.00083774 -0.01423269     0.0001718     0.0001841    -0.0006037     0.0001720    -1.3883605    -1.3354188    -4.7119714     0.3684964
  7.05000019 42.00000000  0.00123319 -0.01383125     0.0001445     0.0001749    -0.0005637     0.0002345    -1.4746989    -1.3442589    -4.5097526     0.5025732
  9.55000019 42.00000000  0.00156016 -0.01331153     0.0001145     0.0001634    -0.0005157     0.0002929    -1.5474613    -1.3381298    -4.2483807     0.6276730
 13.55000019 42.00000000  0.00192173 -0.01231524     0.0000688     0.0001418    -0.0004316     0.0003069    -1.5992267    -1.2863942    -3.7441335     0.6576496
 17.54999924 42.00000000  0.00211081 -0.01126680     0.0000223     0.0001203    -0.0003564     0.0003093    -1.7374385    -1.3173734    -3.3601051     0.6628825
 25.04999924 42.00000000  0.00212419 -0.00939416    -0.0000152     0.0000848    -0.0002476     0.0002339    -1.5912134    -1.1624837    -2.5869684     0.5012860
 32.54999924 42.00000000  0.00188223 -0.00789285    -0.0000473     0.0000578    -0.0001760     0.0001579    -1.6213705    -1.1708621    -2.1731706     0.3383757
 42.54999924 42.00000000  0.00142097 -0.00651890    -0.0000470     0.0000334    -0.0001249     0.0000867    -1.3878349    -1.0434952    -1.7218341     0.1858642
 52.54999924 42.00000000  0.00094322 -0.00568922    -0.0000466     0.0000179    -0.0000992     0.0000314    -1.2953009    -1.0187620    -1.5208381     0.0673603
 65.05000305 42.00000000  0.00042896 -0.00521008    -0.0000377     0.0000066    -0.0000875     0.0000125    -1.1785306    -0.9885752    -1.3918217     0.0267571
 77.55000305 42.00000000  0.00000000 -0.00506859    -0.0000309     0.0000000    -0.0000845    -0.0000022    -1.1216821    -0.9892333    -1.3514011    -0.0046871
  0.00000000 43.00000000  0.00000000 -0.01518654     0.0002012     0.0002012    -0.0006590    -0.0000001    -1.3378391    -1.3378391    -5.0243540    -0.0002623
  1.39999998 43.00000000  0.00027985 -0.01515319     0.0001996     0.0001999    -0.0006553     0.0000621    -1.3380564    -1.3366241    -5.0018918     0.1329897
  4.55000019 43.00000000  0.00087662 -0.01484533     0.0001784     0.0001927    -0.0006219     0.0001898    -1.3849816    -1.3240547    -4.8151032     0.4066431
  9.55000019 43.00000000  0.00161621 -0.01383088     0.0001145     0.0001692    -0.0005224     0.0003163    -1.5552540    -1.3206093    -4.2848235     0.6778278
 17.54999924 43.00000000  0.00214611 -0.01162129     0.0000175     0.0001223    -0.0003514     0.0003211    -1.7397838    -1.2904908    -3.3207260     0.6881767
 32.54999924 43.00000000  0.00186629 -0.00806546    -0.0000492     0.0000573    -0.0001689     0.0001563    -1.5886414    -1.1320351    -2.1014871     0.3349285
 52.54999924 43.00000000  0.00091868 -0.00578588    -0.0000457     0.0000175    -0.0000943     0.0000284    -1.2459998    -0.9751019    -1.4539843     0.0607903
 77.55000305 43.00000000  0.00000000 -0.00515100    -0.0000298     0.0000000    -0.0000805    -0.0000023    -1.0722435    -0.9447070    -1.2895239    -0.0048879
  0.00000000 44.00000000  0.00000000 -0.01585721     0.0002116     0.0002116    -0.0006824    -0.0000002    -1.3155786    -1.3155786    -5.1470793    -0.0003330
  0.69999999 44.00000000  0.00014760 -0.01584797     0.0002101     0.0002109    -0.0006812     0.0000340    -1.3297455    -1.3266643    -5.1498421     0.0728950
  1.39999998 44.00000000  0.00029420 -0.01582004     0.0002096     0.0002101    -0.0006779     0.0000689    -1.3143019    -1.3120363    -5.1179314     0.1477042
  2.97499990 44.00000000  0.00061598 -0.01569085     0.0001981     0.0002071    -0.0006634     0.0001392    -1.3649933    -1.3265626    -5.0571884     0.2983260
  4.55000019 44.00000000  0.00091817 -0.01547652     0.0001852     0.0002018    -0.0006402     0.0002092    -1.3760599    -1.3050613    -4.9135149     0.4483729
  7.05000019 44.00000000  0.00133798 -0.01498364     0.0001510     0.0001898    -0.0005886     0.0002787    -1.4767782    -1.3107372    -4.6468365     0.5973058
  9.55000019 44.00000000  0.00167338 -0.01435636     0.0001138     0.0001752    -0.0005297     0.0003417    -1.5753124    -1.3121268    -4.3333433     0.7322668
 13.55000019 44.00000000  0.00201945 -0.01317773     0.0000627     0.0001490    -0.0004305     0.0003447    -1.6069413    -1.2368523    -3.7207386     0.7386868
 17.54999924 44.00000000  0.00217484 -0.01196967     0.0000121     0.0001239    -0.0003466     0.0003340    -1.7530889    -1.2738090    -3.2902675     0.7157552
 25.04999924 44.00000000  0.00212592 -0.00987465    -0.0000222     0.0000849    -0.0002330     0.0002419    -1.5550818    -1.0961661    -2.4583374     0.5182759
 32.54999924 44.00000000  0.00184163 -0.00823059    -0.0000511     0.0000566    -0.0001616     0.0001548    -1.5568682    -1.0954837    -2.0305206     0.3316761
 42.54999924 44.00000000  0.00136089 -0.00675653    -0.0000476     0.0000320    -0.0001128     0.0000810    -1.3043416    -0.9633226    -1.5837163     0.1735402
 52.54999924 44.00000000  0.00088988 -0.00587774    -0.0000447     0.0000169    -0.0000893     0.0000253    -1.1947447    -0.9306774    -1.3859586     0.0541211
 65.05000305 44.00000000  0.00040023 -0.00537650    -0.0000356     0.0000062    -0.0000789     0.0000095    -1.0813222    -0.9024025    -1.2669745     0.0204124
 77.55000305 44.00000000  0.00000000 -0.00522950    -0.0000284     0.0000000    -0.0000764    -0.0000024    -1.0207786    -0.8988841    -1.2264317    -0.0051648
  0.00000000 45.00000000  0.00000000 -0.01655400     0.0002228     0.0002228    -0.0007110     0.0000001    -1.3198431    -1.3198431    -5.3220331     0.0001145
  1.39999998 45.00000000  0.00030962 -0.01651204     0.0002208     0.0002212    -0.0007066     0.0000770    -1.3223174    -1.3206018    -5.2965256     0.1650409
  4.55000019 45.00000000  0.00096224 -0.01612742     0.0001921     0.0002115    -0.0006619     0.0002326    -1.3911440    -1.3080205    -5.0511278     0.4984549
  9.55000019 45.00000000  0.00173035 -0.01488980     0.0001119     0.0001812    -0.0005360     0.0003687    -1.6028570    -1.3057006    -4.3792294     0.7900779
 17.54999924 45.00000000  0.00219763 -0.01231359     0.0000059     0.0001252    -0.0003400     0.0003443    -1.7644243    -1.2532466    -3.2470077     0.7376945
 32.54999924 45.00000000  0.00180897 -0.00838856    -0.0000526     0.0000556    -0.0001541     0.0001518    -1.5215110    -1.0577918    -1.9565941     0.3253288
 52.54999924 45.00000000  0.00085677 -0.00596459    -0.0000434     0.0000163    -0.0000846     0.0000220    -1.1424633    -0.8867891    -1.3190682     0.0471108
 77.55000305 45.00000000  0.00000000 -0.00530398    -0.0000270     0.0000000    -0.0000726    -0.0000025    -0.9695111    -0.8538703    -1.1651646    -0.0053900
  0.00000000 46.00000000  0.00000000 -0.01727926     0.0002350     0.0002350    -0.0009575    -0.0000002    -1.9107336    -1.9107336    -5.5103036    -0.0003238
  0.69999999 46.00000000  0.00016387 -0.01726781     0.0002332     0.0002341    -0.0009550     0.0000631    -1.9225706    -1.9195394    -5.5098719     0.0899210
  1.39999998 46.00000000  0.00032642 -0.01723316     0.0002328     0.0002332    -0.0009489     0.0001282    -1.8999007    -1.8986351    -5.4696720     0.1834445
  2.97499990 46.00000000  0.00068179 -0.01706895     0.0002170     0.0002292    -0.0009262     0.0002587    -1.9349638    -1.8958976    -5.3829910     0.3697775
  4.55000019 46.00000000  0.00101003 -0.01680034     0.0001989     0.0002220    -0.0008871     0.0003830    -1.9221553    -1.8481055    -5.1954354     0.5491933
  7.05000019 46.00000000  0.00145200 -0.01618820     0.0001555     0.0002060    -0.0008047     0.0005004    -1.9450542    -1.7827714    -4.8288942     0.7146778
  9.55000019 46.00000000  0.00178738 -0.01542829     0.0001089     0.0001872    -0.0007177     0.0005915    -1.9814543    -1.7300115    -4.4491230     0.8473085
 13.55000019 46.00000000  0.00210335 -0.01403457     0.0000530     0.0001552    -0.0005690     0.0005772    -1.8452753    -1.5165298    -3.6923720     0.8244384
 17.54999924 46.00000000  0.00221100 -0.01264965    -0.0000008     0.0001260    -0.0004599     0.0005300    -1.8806852    -1.4731567    -3.2195113     0.7576104
 25.04999924 46.00000000  0.00209056 -0.01032413    -0.0000296     0.0000835    -0.0003064     0.0003693    -1.5274521    -1.1639409    -2.3212751     0.5278534
 32.54999924 46.00000000  0.00176644 -0.00853888    -0.0000541     0.0000543    -0.0002200     0.0002228    -1.4290742    -1.0809055    -1.8837115     0.3180399
 42.54999924 46.00000000  0.00127313 -0.00697004    -0.0000474     0.0000299    -0.0001568     0.0001097    -1.1521614    -0.9037732    -1.4438815     0.1570190
 52.54999924 46.00000000  0.00081933 -0.00604686    -0.0000418     0.0000156    -0.0001284     0.0000288    -1.0243043    -0.8398307    -1.2506769     0.0408515
 65.05000305 46.00000000  0.00036327 -0.00552619    -0.0000328     0.0000056    -0.0001153     0.0000091    -0.9256445    -0.8023512    -1.1430597     0.0131062
 77.55000305 46.00000000  0.00000000 -0.00537477    -0.0000254     0.0000000    -0.0001116    -0.0000027    -0.8706097    -0.7891257    -1.1022044    -0.0042695
  0.00000000 47.00000000  0.00000000 -0.01851357     0.0003053     0.0003053    -0.0012931     0.0000017    -2.2711867    -2.2711867    -5.6963712     0.0018643
  1.39999998 47.00000000  0.00042244 -0.01845497     0.0003005     0.0003017    -0.0012815     0.0001730    -2.2670294    -2.2643976    -5.6570329     0.1853894
  4.55000019 47.00000000  0.00129163 -0.01793718     0.0002459     0.0002839    -0.0011833     0.0005183    -2.2739387    -2.1926060    -5.3366308     0.5553171
  9.55000019 47.00000000  0.00220092 -0.01633896     0.0001130     0.0002305    -0.0009270     0.0007768    -2.2586710    -2.0070107    -4.4873262     0.8322652
 17.54999924 47.00000000  0.00254159 -0.01323117    -0.0000211     0.0001448    -0.0005753     0.0006757    -1.9806423    -1.6251074    -3.1682752     0.7239277
 32.54999924 47.00000000  0.00185315 -0.00882350    -0.0000652     0.0000569    -0.0002757     0.0002762    -1.3569020    -1.0951971    -1.8080845     0.2958904
 52.54999924 47.00000000  0.00079552 -0.00621829    -0.0000425     0.0000151    -0.0001661     0.0000313    -0.9203792    -0.7968567    -1.1853007     0.0335851