 TITLE = "GEORGIA TECH TEST PIT GRID (cement-stabilized subbase/subgrade)                 "
 VARIABLES = "R","Z","DISP_R","DISP_Z","EPSR","EPSTH","EPSZ","EPSRZ","SIGMAR","SIGMATH","SIGMAZ","SIGMARZ","SIGMA1","SIGMA2","SIGMA3","E_VERT","E_HORIZ","G_MOD","MRRATIO","G_RATIO"
 ZONE T="GEOM & DISP 1", N=  153, E=   42, F=FEPOINT, ET=QUADRILATERAL
  .00000E+00  .00000E+00  .00000E+00  .00000E+00  .000000E+00  .000000E+00  .000000E+00  .000000E+00  .000000E+00  .000000E+00  .000000E+00  .000000E+00  .000000E+00  .000000E+00  .000000E+00  .000000E+00  .000000E+00  .000000E+00  .00000E+00  .00000E+00
  .70000E+00  .00000E+00  .00000E+00  .00000E+00  .000000E+00  .000000E+00  .000000E+00  .000000E+00  .000000E+00  .000000E+00  .000000E+00  .000000E+00  .000000E+00  .000000E+00  .000000E+00  .000000E+00  .000000E+00  .000000E+00  .00000E+00  .00000E+00
  .14000E+01  .00000E+00  .00000E+00  .00000E+00  .000000E+00  .000000E+00  .000000E+00  .000000E+00  .000000E+00  .000000E+00  .000000E+00  .000000E+00  .000000E+00  .000000E+00  .000000E+00  .000000E+00  .000000E+00  .000000E+00  .00000E+00  .00000E+00
  .29750E+01  .00000E+00  .00000E+00  .00000E+00  .000000E+00  .000000E+00  .000000E+00  .000000E+00  .000000E+00  .000000E+00  .000000E+00  .000000E+00  .000000E+00  .000000E+00  .000000E+00  .000000E+00  .000000E+00  .000000E+00  .00000E+00  .00000E+00
  .45500E+01  .00000E+00  .00000E+00  .00000E+00  .000000E+00  .000000E+00  .000000E+00  .000000E+00  .000000E+00  .000000E+00  .000000E+00  .000000E+00  .000000E+00  .000000E+00  .000000E+00  .000000E+00  .000000E+00  .000000E+00  .00000E+00  .00000E+00
  .70500E+01  .00000E+00  .00000E+00  .00000E+00  .000000E+00  .000000E+00  .000000E+00  .000000E+00  .000000E+00  .000000E+00  .000000E+00  .000000E+00  .000000E+00  .000000E+00  .000000E+00  .000000E+00  .000000E+00  .000000E+00  .00000E+00  .00000E+00
  .95500E+01  .00000E+00  .00000E+00  .00000E+00  .000000E+00  .000000E+00  .000000E+00  .000000E+00  .000000E+00  .000000E+00  .000000E+00  .000000E+00  .000000E+00  .000000E+00  .000000E+00  .000000E+00  .000000E+00  .000000E+00  .00000E+00  .00000E+00
  .13550E+02  .00000E+00  .00000E+00  .00000E+00  .000000E+00  .000000E+00  .000000E+00  .000000E+00  .000000E+00  .000000E+00  .000000E+00  .000000E+00  .000000E+00  .000000E+00  .000000E+00  .000000E+00  .000000E+00  .000000E+00  .00000E+00  .00000E+00
  .17550E+02  .00000E+00  .00000E+00  .00000E+00  .000000E+00  .000000E+00  .000000E+00  .000000E+00  .000000E+00  .000000E+00  .000000E+00  .000000E+00  .000000E+00  .000000E+00  .000000E+00  .000000E+00  .000000E+00  .000000E+00  .00000E+00  .00000E+00
  .25050E+02  .00000E+00  .00000E+00  .00000E+00  .000000E+00  .000000E+00  .000000E+00  .000000E+00  .000000E+00  .000000E+00  .000000E+00  .000000E+00  .000000E+00  .000000E+00  .000000E+00  .000000E+00  .000000E+00  .000000E+00  .00000E+00  .00000E+00
  .32550E+02  .00000E+00  .00000E+00  .00000E+00  .000000E+00  .000000E+00  .000000E+00  .000000E+00  .000000E+00  .000000E+00  .000000E+00  .000000E+00  .000000E+00  .000000E+00  .000000E+00  .000000E+00  .000000E+00  .000000E+00  .00000E+00  .00000E+00
  .42550E+02  .00000E+00  .00000E+00  .00000E+00  .000000E+00  .000000E+00  .000000E+00  .000000E+00  .000000E+00  .000000E+00  .000000E+00  .000000E+00  .000000E+00  .000000E+00  .000000E+00  .000000E+00  .000000E+00  .000000E+00  .00000E+00  .00000E+00
  .52550E+02  .00000E+00  .00000E+00  .00000E+00  .000000E+00  .000000E+00  .000000E+00  .000000E+00  .000000E+00  .000000E+00  .000000E+00  .000000E+00  .000000E+00  .000000E+00  .000000E+00  .000000E+00  .000000E+00  .000000E+00  .00000E+00  .00000E+00
  .65050E+02  .00000E+00  .00000E+00  .00000E+00  .000000E+00  .000000E+00  .000000E+00  .000000E+00  .000000E+00  .000000E+00  .000000E+00  .000000E+00  .000000E+00  .000000E+00  .000000E+00  .000000E+00  .000000E+00  .000000E+00  .00000E+00  .00000E+00
  .77550E+02  .00000E+00  .00000E+00  .00000E+00  .000000E+00  .000000E+00  .000000E+00  .000000E+00  .000000E+00  .000000E+00  .000000E+00  .000000E+00  .000000E+00  .000000E+00  .000000E+00  .000000E+00  .000000E+00  .000000E+00  .00000E+00  .00000E+00
  .00000E+00  .10000E+02  .00000E+00 -.35716E-03  .000000E+00  .000000E+00  .000000E+00  .000000E+00  .000000E+00  .000000E+00  .000000E+00  .000000E+00  .000000E+00  .000000E+00  .000000E+00  .000000E+00  .000000E+00  .000000E+00  .00000E+00  .00000E+00
  .14000E+01  .10000E+02  .21288E-04 -.35667E-03  .000000E+00  .000000E+00  .000000E+00  .000000E+00  .000000E+00  .000000E+00  .000000E+00  .000000E+00  .000000E+00  .000000E+00  .000000E+00  .000000E+00  .000000E+00  .000000E+00  .00000E+00  .00000E+00
  .45500E+01  .10000E+02  .68452E-04 -.35172E-03  .000000E+00  .000000E+00  .000000E+00  .000000E+00  .000000E+00  .000000E+00  .000000E+00  .000000E+00  .000000E+00  .000000E+00  .000000E+00  .000000E+00  .000000E+00  .000000E+00  .00000E+00  .00000E+00
  .95500E+01  .10000E+02  .13792E-03 -.33293E-03  .000000E+00  .000000E+00  .000000E+00  .000000E+00  .000000E+00  .000000E+00  .000000E+00  .000000E+00  .000000E+00  .000000E+00  .000000E+00  .000000E+00  .000000E+00  .000000E+00  .00000E+00  .00000E+00
  .17550E+02  .10000E+02  .22290E-03 -.28234E-03  .000000E+00  .000000E+00  .000000E+00  .000000E+00  .000000E+00  .000000E+00  .000000E+00  .000000E+00  .000000E+00  .000000E+00  .000000E+00  .000000E+00  .000000E+00  .000000E+00  .00000E+00  .00000E+00
  .32550E+02  .10000E+02  .26692E-03 -.15150E-03  .000000E+00  .000000E+00  .000000E+00  .000000E+00  .000000E+00  .000000E+00  .000000E+00  .000000E+00  .000000E+00  .000000E+00  .000000E+00  .000000E+00  .000000E+00  .000000E+00  .00000E+00  .00000E+00
  .52550E+02  .10000E+02  .16089E-03 -.20883E-04  .000000E+00  .000000E+00  .000000E+00  .000000E+00  .000000E+00  .000000E+00  .000000E+00  .000000E+00  .000000E+00  .000000E+00  .000000E+00  .000000E+00  .000000E+00  .000000E+00  .00000E+00  .00000E+00
  .77550E+02  .10000E+02  .00000E+00  .20244E-04  .000000E+00  .000000E+00  .000000E+00  .000000E+00  .000000E+00  .000000E+00  .000000E+00  .000000E+00  .000000E+00  .000000E+00  .000000E+00  .000000E+00  .000000E+00  .000000E+00  .00000E+00  .00000E+00
  .00000E+00  .20000E+02  .00000E+00 -.10560E-02  .000000E+00  .000000E+00  .000000E+00  .000000E+00  .000000E+00  .000000E+00  .000000E+00  .000000E+00  .000000E+00  .000000E+00  .000000E+00  .000000E+00  .000000E+00  .000000E+00  .00000E+00  .00000E+00
  .70000E+00  .20000E+02  .20097E-04 -.10553E-02  .000000E+00  .000000E+00  .000000E+00  .000000E+00  .000000E+00  .000000E+00  .000000E+00  .000000E+00  .000000E+00  .000000E+00  .000000E+00  .000000E+00  .000000E+00  .000000E+00  .00000E+00  .00000E+00
  .14000E+01  .20000E+02  .40149E-04 -.10538E-02  .000000E+00  .000000E+00  .000000E+00  .000000E+00  .000000E+00  .000000E+00  .000000E+00  .000000E+00  .000000E+00  .000000E+00  .000000E+00  .000000E+00  .000000E+00  .000000E+00  .00000E+00  .00000E+00
  .29750E+01  .20000E+02  .84775E-04 -.10457E-02  .000000E+00  .000000E+00  .000000E+00  .000000E+00  .000000E+00  .000000E+00  .000000E+00  .000000E+00  .000000E+00  .000000E+00  .000000E+00  .000000E+00  .000000E+00  .000000E+00  .00000E+00  .00000E+00
  .45500E+01  .20000E+02  .12849E-03 -.10335E-02  .000000E+00  .000000E+00  .000000E+00  .000000E+00  .000000E+00  .000000E+00  .000000E+00  .000000E+00  .000000E+00  .000000E+00  .000000E+00  .000000E+00  .000000E+00  .000000E+00  .00000E+00  .00000E+00
  .70500E+01  .20000E+02  .19428E-03 -.10020E-02  .000000E+00  .000000E+00  .000000E+00  .000000E+00  .000000E+00  .000000E+00  .000000E+00  .000000E+00  .000000E+00  .000000E+00  .000000E+00  .000000E+00  .000000E+00  .000000E+00  .00000E+00  .00000E+00
  .95500E+01  .20000E+02  .25508E-03 -.96115E-03  .000000E+00  .000000E+00  .000000E+00  .000000E+00  .000000E+00  .000000E+00  .000000E+00  .000000E+00  .000000E+00  .000000E+00  .000000E+00  .000000E+00  .000000E+00  .000000E+00  .00000E+00  .00000E+00
  .13550E+02  .20000E+02  .33615E-03 -.87002E-03  .000000E+00  .000000E+00  .000000E+00  .000000E+00  .000000E+00  .000000E+00  .000000E+00  .000000E+00  .000000E+00  .000000E+00  .000000E+00  .000000E+00  .000000E+00  .000000E+00  .00000E+00  .00000E+00
  .17550E+02  .20000E+02  .39690E-03 -.76222E-03  .000000E+00  .000000E+00  .000000E+00  .000000E+00  .000000E+00  .000000E+00  .000000E+00  .000000E+00  .000000E+00  .000000E+00  .000000E+00  .000000E+00  .000000E+00  .000000E+00  .00000E+00  .00000E+00
  .25050E+02  .20000E+02  .44762E-03 -.54257E-03  .000000E+00  .000000E+00  .000000E+00  .000000E+00  .000000E+00  .000000E+00  .000000E+00  .000000E+00  .000000E+00  .000000E+00  .000000E+00  .000000E+00  .000000E+00  .000000E+00  .00000E+00  .00000E+00
  .32550E+02  .20000E+02  .42903E-03 -.33444E-03  .000000E+00  .000000E+00  .000000E+00  .000000E+00  .000000E+00  .000000E+00  .000000E+00  .000000E+00  .000000E+00  .000000E+00  .000000E+00  .000000E+00  .000000E+00  .000000E+00  .00000E+00  .00000E+00
  .42550E+02  .20000E+02  .35083E-03 -.13090E-03  .000000E+00  .000000E+00  .000000E+00  .000000E+00  .000000E+00  .000000E+00  .000000E+00  .000000E+00  .000000E+00  .000000E+00  .000000E+00  .000000E+00  .000000E+00  .000000E+00  .00000E+00  .00000E+00
  .52550E+02  .20000E+02  .23724E-03 -.65614E-05  .000000E+00  .000000E+00  .000000E+00  .000000E+00  .000000E+00  .000000E+00  .000000E+00  .000000E+00  .000000E+00  .000000E+00  .000000E+00  .000000E+00  .000000E+00  .000000E+00  .00000E+00  .00000E+00
  .65050E+02  .20000E+02  .10862E-03  .57373E-04  .000000E+00  .000000E+00  .000000E+00  .000000E+00  .000000E+00  .000000E+00  .000000E+00  .000000E+00  .000000E+00  .000000E+00  .000000E+00  .000000E+00  .000000E+00  .000000E+00  .00000E+00  .00000E+00
  .77550E+02  .20000E+02  .00000E+00  .74639E-04  .000000E+00  .000000E+00  .000000E+00  .000000E+00  .000000E+00  .000000E+00  .000000E+00  .000000E+00  .000000E+00  .000000E+00  .000000E+00  .000000E+00  .000000E+00  .000000E+00  .00000E+00  .00000E+00
  .00000E+00  .25000E+02  .00000E+00 -.15622E-02  .000000E+00  .000000E+00  .000000E+00  .000000E+00  .000000E+00  .000000E+00  .000000E+00  .000000E+00  .000000E+00  .000000E+00  .000000E+00  .000000E+00  .000000E+00  .000000E+00  .00000E+00  .00000E+00
  .14000E+01  .25000E+02  .52013E-04 -.15584E-02  .000000E+00  .000000E+00  .000000E+00  .000000E+00  .000000E+00  .000000E+00  .000000E+00  .000000E+00  .000000E+00  .000000E+00  .000000E+00  .000000E+00  .000000E+00  .000000E+00  .00000E+00  .00000E+00
  .45500E+01  .25000E+02  .16612E-03 -.15236E-02  .000000E+00  .000000E+00  .000000E+00  .000000E+00  .000000E+00  .000000E+00  .000000E+00  .000000E+00  .000000E+00  .000000E+00  .000000E+00  .000000E+00  .000000E+00  .000000E+00  .00000E+00  .00000E+00
  .95500E+01  .25000E+02  .32608E-03 -.14004E-02  .000000E+00  .000000E+00  .000000E+00  .000000E+00  .000000E+00  .000000E+00  .000000E+00  .000000E+00  .000000E+00  .000000E+00  .000000E+00  .000000E+00  .000000E+00  .000000E+00  .00000E+00  .00000E+00
  .17550E+02  .25000E+02  .49311E-03 -.10858E-02  .000000E+00  .000000E+00  .000000E+00  .000000E+00  .000000E+00  .000000E+00  .000000E+00  .000000E+00  .000000E+00  .000000E+00  .000000E+00  .000000E+00  .000000E+00  .000000E+00  .00000E+00  .00000E+00
  .32550E+02  .25000E+02  .49367E-03 -.43767E-03  .000000E+00  .000000E+00  .000000E+00  .000000E+00  .000000E+00  .000000E+00  .000000E+00  .000000E+00  .000000E+00  .000000E+00  .000000E+00  .000000E+00  .000000E+00  .000000E+00  .00000E+00  .00000E+00
  .52550E+02  .25000E+02  .24589E-03  .95940E-05  .000000E+00  .000000E+00  .000000E+00  .000000E+00  .000000E+00  .000000E+00  .000000E+00  .000000E+00  .000000E+00  .000000E+00  .000000E+00  .000000E+00  .000000E+00  .000000E+00  .00000E+00  .00000E+00
  .77550E+02  .25000E+02  .00000E+00  .10753E-03  .000000E+00  .000000E+00  .000000E+00  .000000E+00  .000000E+00  .000000E+00  .000000E+00  .000000E+00  .000000E+00  .000000E+00  .000000E+00  .000000E+00  .000000E+00  .000000E+00  .00000E+00  .00000E+00
  .00000E+00  .30000E+02  .00000E+00 -.22291E-02  .000000E+00  .000000E+00  .000000E+00  .000000E+00  .000000E+00  .000000E+00  .000000E+00  .000000E+00  .000000E+00  .000000E+00  .000000E+00  .000000E+00  .000000E+00  .000000E+00  .00000E+00  .00000E+00
  .70000E+00  .30000E+02  .33072E-04 -.22276E-02  .000000E+00  .000000E+00  .000000E+00  .000000E+00  .000000E+00  .000000E+00  .000000E+00  .000000E+00  .000000E+00  .000000E+00  .000000E+00  .000000E+00  .000000E+00  .000000E+00  .00000E+00  .00000E+00
  .14000E+01  .30000E+02  .66027E-04 -.22232E-02  .000000E+00  .000000E+00  .000000E+00  .000000E+00  .000000E+00  .000000E+00  .000000E+00  .000000E+00  .000000E+00  .000000E+00  .000000E+00  .000000E+00  .000000E+00  .000000E+00  .00000E+00  .00000E+00
  .29750E+01  .30000E+02  .13923E-03 -.22016E-02  .000000E+00  .000000E+00  .000000E+00  .000000E+00  .000000E+00  .000000E+00  .000000E+00  .000000E+00  .000000E+00  .000000E+00  .000000E+00  .000000E+00  .000000E+00  .000000E+00  .00000E+00  .00000E+00
  .45500E+01  .30000E+02  .21005E-03 -.21657E-02  .000000E+00  .000000E+00  .000000E+00  .000000E+00  .000000E+00  .000000E+00  .000000E+00  .000000E+00  .000000E+00  .000000E+00  .000000E+00  .000000E+00  .000000E+00  .000000E+00  .00000E+00  .00000E+00
  .70500E+01  .30000E+02  .31481E-03 -.20800E-02  .000000E+00  .000000E+00  .000000E+00  .000000E+00  .000000E+00  .000000E+00  .000000E+00  .000000E+00  .000000E+00  .000000E+00  .000000E+00  .000000E+00  .000000E+00  .000000E+00  .00000E+00  .00000E+00
  .95500E+01  .30000E+02  .40707E-03 -.19651E-02  .000000E+00  .000000E+00  .000000E+00  .000000E+00  .000000E+00  .000000E+00  .000000E+00  .000000E+00  .000000E+00  .000000E+00  .000000E+00  .000000E+00  .000000E+00  .000000E+00  .00000E+00  .00000E+00
  .13550E+02  .30000E+02  .51932E-03 -.17308E-02  .000000E+00  .000000E+00  .000000E+00  .000000E+00  .000000E+00  .000000E+00  .000000E+00  .000000E+00  .000000E+00  .000000E+00  .000000E+00  .000000E+00  .000000E+00  .000000E+00  .00000E+00  .00000E+00
  .17550E+02  .30000E+02  .58915E-03 -.14640E-02  .000000E+00  .000000E+00  .000000E+00  .000000E+00  .000000E+00  .000000E+00  .000000E+00  .000000E+00  .000000E+00  .000000E+00  .000000E+00  .000000E+00  .000000E+00  .000000E+00  .00000E+00  .00000E+00
  .25050E+02  .30000E+02  .60599E-03 -.94986E-03  .000000E+00  .000000E+00  .000000E+00  .000000E+00  .000000E+00  .000000E+00  .000000E+00  .000000E+00  .000000E+00  .000000E+00  .000000E+00  .000000E+00  .000000E+00  .000000E+00  .00000E+00  .00000E+00
  .32550E+02  .30000E+02  .52885E-03 -.52675E-03  .000000E+00  .000000E+00  .000000E+00  .000000E+00  .000000E+00  .000000E+00  .000000E+00  .000000E+00  .000000E+00  .000000E+00  .000000E+00  .000000E+00  .000000E+00  .000000E+00  .00000E+00  .00000E+00
  .42550E+02  .30000E+02  .37690E-03 -.16199E-03  .000000E+00  .000000E+00  .000000E+00  .000000E+00  .000000E+00  .000000E+00  .000000E+00  .000000E+00  .000000E+00  .000000E+00  .000000E+00  .000000E+00  .000000E+00  .000000E+00  .00000E+00  .00000E+00
  .52550E+02  .30000E+02  .23167E-03  .31732E-04  .000000E+00  .000000E+00  .000000E+00  .000000E+00  .000000E+00  .000000E+00  .000000E+00  .000000E+00  .000000E+00  .000000E+00  .000000E+00  .000000E+00  .000000E+00  .000000E+00  .00000E+00  .00000E+00
  .65050E+02  .30000E+02  .97575E-04  .11669E-03  .000000E+00  .000000E+00  .000000E+00  .000000E+00  .000000E+00  .000000E+00  .000000E+00  .000000E+00  .000000E+00  .000000E+00  .000000E+00  .000000E+00  .000000E+00  .000000E+00  .00000E+00  .00000E+00
  .77550E+02  .30000E+02  .00000E+00  .13742E-03  .000000E+00  .000000E+00  .000000E+00  .000000E+00  .000000E+00  .000000E+00  .000000E+00  .000000E+00  .000000E+00  .000000E+00  .000000E+00  .000000E+00  .000000E+00  .000000E+00  .00000E+00  .00000E+00
  .00000E+00  .33000E+02  .00000E+00 -.27374E-02  .000000E+00  .000000E+00  .000000E+00  .000000E+00  .000000E+00  .000000E+00  .000000E+00  .000000E+00  .000000E+00  .000000E+00  .000000E+00  .000000E+00  .000000E+00  .000000E+00  .00000E+00  .00000E+00
  .14000E+01  .33000E+02  .76722E-04 -.27289E-02  .000000E+00  .000000E+00  .000000E+00  .000000E+00  .000000E+00  .000000E+00  .000000E+00  .000000E+00  .000000E+00  .000000E+00  .000000E+00  .000000E+00  .000000E+00  .000000E+00  .00000E+00  .00000E+00
  .45500E+01  .33000E+02  .24303E-03 -.26508E-02  .000000E+00  .000000E+00  .000000E+00  .000000E+00  .000000E+00  .000000E+00  .000000E+00  .000000E+00  .000000E+00  .000000E+00  .000000E+00  .000000E+00  .000000E+00  .000000E+00  .00000E+00  .00000E+00
  .95500E+01  .33000E+02  .46342E-03 -.23794E-02  .000000E+00  .000000E+00  .000000E+00  .000000E+00  .000000E+00  .000000E+00  .000000E+00  .000000E+00  .000000E+00  .000000E+00  .000000E+00  .000000E+00  .000000E+00  .000000E+00  .00000E+00  .00000E+00
  .17550E+02  .33000E+02  .64662E-03 -.17281E-02  .000000E+00  .000000E+00  .000000E+00  .000000E+00  .000000E+00  .000000E+00  .000000E+00  .000000E+00  .000000E+00  .000000E+00  .000000E+00  .000000E+00  .000000E+00  .000000E+00  .00000E+00  .00000E+00
  .32550E+02  .33000E+02  .53094E-03 -.57502E-03  .000000E+00  .000000E+00  .000000E+00  .000000E+00  .000000E+00  .000000E+00  .000000E+00  .000000E+00  .000000E+00  .000000E+00  .000000E+00  .000000E+00  .000000E+00  .000000E+00  .00000E+00  .00000E+00
  .52550E+02  .33000E+02  .20949E-03  .47234E-04  .000000E+00  .000000E+00  .000000E+00  .000000E+00  .000000E+00  .000000E+00  .000000E+00  .000000E+00  .000000E+00  .000000E+00  .000000E+00  .000000E+00  .000000E+00  .000000E+00  .00000E+00  .00000E+00
  .77550E+02  .33000E+02  .00000E+00  .15388E-03  .000000E+00  .000000E+00  .000000E+00  .000000E+00  .000000E+00  .000000E+00  .000000E+00  .000000E+00  .000000E+00  .000000E+00  .000000E+00  .000000E+00  .000000E+00  .000000E+00  .00000E+00  .00000E+00
  .00000E+00  .36000E+02  .00000E+00 -.33555E-02  .000000E+00  .000000E+00  .000000E+00  .000000E+00  .000000E+00  .000000E+00  .000000E+00  .000000E+00  .000000E+00  .000000E+00  .000000E+00  .000000E+00  .000000E+00  .000000E+00  .00000E+00  .00000E+00
  .70000E+00  .36000E+02  .44294E-04 -.33526E-02  .000000E+00  .000000E+00  .000000E+00  .000000E+00  .000000E+00  .000000E+00  .000000E+00  .000000E+00  .000000E+00  .000000E+00  .000000E+00  .000000E+00  .000000E+00  .000000E+00  .00000E+00  .00000E+00
  .14000E+01  .36000E+02  .88367E-04 -.33442E-02  .000000E+00  .000000E+00  .000000E+00  .000000E+00  .000000E+00  .000000E+00  .000000E+00  .000000E+00  .000000E+00  .000000E+00  .000000E+00  .000000E+00  .000000E+00  .000000E+00  .00000E+00  .00000E+00
  .29750E+01  .36000E+02  .18570E-03 -.33034E-02  .000000E+00  .000000E+00  .000000E+00  .000000E+00  .000000E+00  .000000E+00  .000000E+00  .000000E+00  .000000E+00  .000000E+00  .000000E+00  .000000E+00  .000000E+00  .000000E+00  .00000E+00  .00000E+00
  .45500E+01  .36000E+02  .27848E-03 -.32360E-02  .000000E+00  .000000E+00  .000000E+00  .000000E+00  .000000E+00  .000000E+00  .000000E+00  .000000E+00  .000000E+00  .000000E+00  .000000E+00  .000000E+00  .000000E+00  .000000E+00  .00000E+00  .00000E+00
  .70500E+01  .36000E+02  .41141E-03 -.30771E-02  .000000E+00  .000000E+00  .000000E+00  .000000E+00  .000000E+00  .000000E+00  .000000E+00  .000000E+00  .000000E+00  .000000E+00  .000000E+00  .000000E+00  .000000E+00  .000000E+00  .00000E+00  .00000E+00
  .95500E+01  .36000E+02  .52184E-03 -.28669E-02  .000000E+00  .000000E+00  .000000E+00  .000000E+00  .000000E+00  .000000E+00  .000000E+00  .000000E+00  .000000E+00  .000000E+00  .000000E+00  .000000E+00  .000000E+00  .000000E+00  .00000E+00  .00000E+00
  .13550E+02  .36000E+02  .63937E-03 -.24541E-02  .000000E+00  .000000E+00  .000000E+00  .000000E+00  .000000E+00  .000000E+00  .000000E+00  .000000E+00  .000000E+00  .000000E+00  .000000E+00  .000000E+00  .000000E+00  .000000E+00  .00000E+00  .00000E+00
  .17550E+02  .36000E+02  .68952E-03 -.20064E-02  .000000E+00  .000000E+00  .000000E+00  .000000E+00  .000000E+00  .000000E+00  .000000E+00  .000000E+00  .000000E+00  .000000E+00  .000000E+00  .000000E+00  .000000E+00  .000000E+00  .00000E+00  .00000E+00
  .25050E+02  .36000E+02  .64376E-03 -.12092E-02  .000000E+00  .000000E+00  .000000E+00  .000000E+00  .000000E+00  .000000E+00  .000000E+00  .000000E+00  .000000E+00  .000000E+00  .000000E+00  .000000E+00  .000000E+00  .000000E+00  .00000E+00  .00000E+00
  .32550E+02  .36000E+02  .50802E-03 -.61221E-03  .000000E+00  .000000E+00  .000000E+00  .000000E+00  .000000E+00  .000000E+00  .000000E+00  .000000E+00  .000000E+00  .000000E+00  .000000E+00  .000000E+00  .000000E+00  .000000E+00  .00000E+00  .00000E+00
  .42550E+02  .36000E+02  .32146E-03 -.15421E-03  .000000E+00  .000000E+00  .000000E+00  .000000E+00  .000000E+00  .000000E+00  .000000E+00  .000000E+00  .000000E+00  .000000E+00  .000000E+00  .000000E+00  .000000E+00  .000000E+00  .00000E+00  .00000E+00
  .52550E+02  .36000E+02  .17792E-03  .62749E-04  .000000E+00  .000000E+00  .000000E+00  .000000E+00  .000000E+00  .000000E+00  .000000E+00  .000000E+00  .000000E+00  .000000E+00  .000000E+00  .000000E+00  .000000E+00  .000000E+00  .00000E+00  .00000E+00
  .65050E+02  .36000E+02  .70090E-04  .14904E-03  .000000E+00  .000000E+00  .000000E+00  .000000E+00  .000000E+00  .000000E+00  .000000E+00  .000000E+00  .000000E+00  .000000E+00  .000000E+00  .000000E+00  .000000E+00  .000000E+00  .00000E+00  .00000E+00
  .77550E+02  .36000E+02  .00000E+00  .16744E-03  .000000E+00  .000000E+00  .000000E+00  .000000E+00  .000000E+00  .000000E+00  .000000E+00  .000000E+00  .000000E+00  .000000E+00  .000000E+00  .000000E+00  .000000E+00  .000000E+00  .00000E+00  .00000E+00
  .00000E+00  .38000E+02  .00000E+00 -.38448E-02  .000000E+00  .000000E+00  .000000E+00  .000000E+00  .000000E+00  .000000E+00  .000000E+00  .000000E+00  .000000E+00  .000000E+00  .000000E+00  .000000E+00  .000000E+00  .000000E+00  .00000E+00  .00000E+00
  .14000E+01  .38000E+02  .97144E-04 -.38301E-02  .000000E+00  .000000E+00  .000000E+00  .000000E+00  .000000E+00  .000000E+00  .000000E+00  .000000E+00  .000000E+00  .000000E+00  .000000E+00  .000000E+00  .000000E+00  .000000E+00  .00000E+00  .00000E+00
  .45500E+01  .38000E+02  .30423E-03 -.36946E-02  .000000E+00  .000000E+00  .000000E+00  .000000E+00  .000000E+00  .000000E+00  .000000E+00  .000000E+00  .000000E+00  .000000E+00  .000000E+00  .000000E+00  .000000E+00  .000000E+00  .00000E+00  .00000E+00
  .95500E+01  .38000E+02  .55881E-03 -.32375E-02  .000000E+00  .000000E+00  .000000E+00  .000000E+00  .000000E+00  .000000E+00  .000000E+00  .000000E+00  .000000E+00  .000000E+00  .000000E+00  .000000E+00  .000000E+00  .000000E+00  .00000E+00  .00000E+00
  .17550E+02  .38000E+02  .71009E-03 -.22069E-02  .000000E+00  .000000E+00  .000000E+00  .000000E+00  .000000E+00  .000000E+00  .000000E+00  .000000E+00  .000000E+00  .000000E+00  .000000E+00  .000000E+00  .000000E+00  .000000E+00  .00000E+00  .00000E+00
  .32550E+02  .38000E+02  .47466E-03 -.63247E-03  .000000E+00  .000000E+00  .000000E+00  .000000E+00  .000000E+00  .000000E+00  .000000E+00  .000000E+00  .000000E+00  .000000E+00  .000000E+00  .000000E+00  .000000E+00  .000000E+00  .00000E+00  .00000E+00
  .52550E+02  .38000E+02  .14998E-03  .73156E-04  .000000E+00  .000000E+00  .000000E+00  .000000E+00  .000000E+00  .000000E+00  .000000E+00  .000000E+00  .000000E+00  .000000E+00  .000000E+00  .000000E+00  .000000E+00  .000000E+00  .00000E+00  .00000E+00
  .77550E+02  .38000E+02  .00000E+00  .17522E-03  .000000E+00  .000000E+00  .000000E+00  .000000E+00  .000000E+00  .000000E+00  .000000E+00  .000000E+00  .000000E+00  .000000E+00  .000000E+00  .000000E+00  .000000E+00  .000000E+00  .00000E+00  .00000E+00
  .00000E+00  .40000E+02  .00000E+00 -.44103E-02  .000000E+00  .000000E+00  .000000E+00  .000000E+00  .000000E+00  .000000E+00  .000000E+00  .000000E+00  .000000E+00  .000000E+00  .000000E+00  .000000E+00  .000000E+00  .000000E+00  .00000E+00  .00000E+00
  .70000E+00  .40000E+02  .53228E-04 -.44056E-02  .000000E+00  .000000E+00  .000000E+00  .000000E+00  .000000E+00  .000000E+00  .000000E+00  .000000E+00  .000000E+00  .000000E+00  .000000E+00  .000000E+00  .000000E+00  .000000E+00  .00000E+00  .00000E+00
  .14000E+01  .40000E+02  .10602E-03 -.43916E-02  .000000E+00  .000000E+00  .000000E+00  .000000E+00  .000000E+00  .000000E+00  .000000E+00  .000000E+00  .000000E+00  .000000E+00  .000000E+00  .000000E+00  .000000E+00  .000000E+00  .00000E+00  .00000E+00
  .29750E+01  .40000E+02  .22130E-03 -.43263E-02  .000000E+00  .000000E+00  .000000E+00  .000000E+00  .000000E+00  .000000E+00  .000000E+00  .000000E+00  .000000E+00  .000000E+00  .000000E+00  .000000E+00  .000000E+00  .000000E+00  .00000E+00  .00000E+00
  .45500E+01  .40000E+02  .32893E-03 -.42182E-02  .000000E+00  .000000E+00  .000000E+00  .000000E+00  .000000E+00  .000000E+00  .000000E+00  .000000E+00  .000000E+00  .000000E+00  .000000E+00  .000000E+00  .000000E+00  .000000E+00  .00000E+00  .00000E+00
  .70500E+01  .40000E+02  .47673E-03 -.39693E-02  .000000E+00  .000000E+00  .000000E+00  .000000E+00  .000000E+00  .000000E+00  .000000E+00  .000000E+00  .000000E+00  .000000E+00  .000000E+00  .000000E+00  .000000E+00  .000000E+00  .00000E+00  .00000E+00
  .95500E+01  .40000E+02  .59100E-03 -.36489E-02  .000000E+00  .000000E+00  .000000E+00  .000000E+00  .000000E+00  .000000E+00  .000000E+00  .000000E+00  .000000E+00  .000000E+00  .000000E+00  .000000E+00  .000000E+00  .000000E+00  .00000E+00  .00000E+00
  .13550E+02  .40000E+02  .69263E-03 -.30376E-02  .000000E+00  .000000E+00  .000000E+00  .000000E+00  .000000E+00  .000000E+00  .000000E+00  .000000E+00  .000000E+00  .000000E+00  .000000E+00  .000000E+00  .000000E+00  .000000E+00  .00000E+00  .00000E+00
  .17550E+02  .40000E+02  .70730E-03 -.24048E-02  .000000E+00  .000000E+00  .000000E+00  .000000E+00  .000000E+00  .000000E+00  .000000E+00  .000000E+00  .000000E+00  .000000E+00  .000000E+00  .000000E+00  .000000E+00  .000000E+00  .00000E+00  .00000E+00
  .25050E+02  .40000E+02  .59206E-03 -.13657E-02  .000000E+00  .000000E+00  .000000E+00  .000000E+00  .000000E+00  .000000E+00  .000000E+00  .000000E+00  .000000E+00  .000000E+00  .000000E+00  .000000E+00  .000000E+00  .000000E+00  .00000E+00  .00000E+00
  .32550E+02  .40000E+02  .42279E-03 -.64732E-03  .000000E+00  .000000E+00  .000000E+00  .000000E+00  .000000E+00  .000000E+00  .000000E+00  .000000E+00  .000000E+00  .000000E+00  .000000E+00  .000000E+00  .000000E+00  .000000E+00  .00000E+00  .00000E+00
  .42550E+02  .40000E+02  .23958E-03 -.13801E-03  .000000E+00  .000000E+00  .000000E+00  .000000E+00  .000000E+00  .000000E+00  .000000E+00  .000000E+00  .000000E+00  .000000E+00  .000000E+00  .000000E+00  .000000E+00  .000000E+00  .00000E+00  .00000E+00
  .52550E+02  .40000E+02  .11853E-03  .82358E-04  .000000E+00  .000000E+00  .000000E+00  .000000E+00  .000000E+00  .000000E+00  .000000E+00  .000000E+00  .000000E+00  .000000E+00  .000000E+00  .000000E+00  .000000E+00  .000000E+00  .00000E+00  .00000E+00
  .65050E+02  .40000E+02  .44275E-04  .16514E-03  .000000E+00  .000000E+00  .000000E+00  .000000E+00  .000000E+00  .000000E+00  .000000E+00  .000000E+00  .000000E+00  .000000E+00  .000000E+00  .000000E+00  .000000E+00  .000000E+00  .00000E+00  .00000E+00
  .77550E+02  .40000E+02  .00000E+00  .18151E-03  .000000E+00  .000000E+00  .000000E+00  .000000E+00  .000000E+00  .000000E+00  .000000E+00  .000000E+00  .000000E+00  .000000E+00  .000000E+00  .000000E+00  .000000E+00  .000000E+00  .00000E+00  .00000E+00
  .00000E+00  .41000E+02  .00000E+00 -.47259E-02  .000000E+00  .000000E+00  .000000E+00  .000000E+00  .000000E+00  .000000E+00  .000000E+00  .000000E+00  .000000E+00  .000000E+00  .000000E+00  .000000E+00  .000000E+00  .000000E+00  .00000E+00  .00000E+00
  .14000E+01  .41000E+02  .10967E-03 -.47041E-02  .000000E+00  .000000E+00  .000000E+00  .000000E+00  .000000E+00  .000000E+00  .000000E+00  .000000E+00  .000000E+00  .000000E+00  .000000E+00  .000000E+00  .000000E+00  .000000E+00  .00000E+00  .00000E+00
  .45500E+01  .41000E+02  .34024E-03 -.45075E-02  .000000E+00  .000000E+00  .000000E+00  .000000E+00  .000000E+00  .000000E+00  .000000E+00  .000000E+00  .000000E+00  .000000E+00  .000000E+00  .000000E+00  .000000E+00  .000000E+00  .00000E+00  .00000E+00
  .95500E+01  .41000E+02  .60228E-03 -.38694E-02  .000000E+00  .000000E+00  .000000E+00  .000000E+00  .000000E+00  .000000E+00  .000000E+00  .000000E+00  .000000E+00  .000000E+00  .000000E+00  .000000E+00  .000000E+00  .000000E+00  .00000E+00  .00000E+00
  .17550E+02  .41000E+02  .69789E-03 -.25057E-02  .000000E+00  .000000E+00  .000000E+00  .000000E+00  .000000E+00  .000000E+00  .000000E+00  .000000E+00  .000000E+00  .000000E+00  .000000E+00  .000000E+00  .000000E+00  .000000E+00  .00000E+00  .00000E+00
  .32550E+02  .41000E+02  .38744E-03 -.65327E-03  .000000E+00  .000000E+00  .000000E+00  .000000E+00  .000000E+00  .000000E+00  .000000E+00  .000000E+00  .000000E+00  .000000E+00  .000000E+00  .000000E+00  .000000E+00  .000000E+00  .00000E+00  .00000E+00
  .52550E+02  .41000E+02  .10038E-03  .86699E-04  .000000E+00  .000000E+00  .000000E+00  .000000E+00  .000000E+00  .000000E+00  .000000E+00  .000000E+00  .000000E+00  .000000E+00  .000000E+00  .000000E+00  .000000E+00  .000000E+00  .00000E+00  .00000E+00
  .77550E+02  .41000E+02  .00000E+00  .18422E-03  .000000E+00  .000000E+00  .000000E+00  .000000E+00  .000000E+00  .000000E+00  .000000E+00  .000000E+00  .000000E+00  .000000E+00  .000000E+00  .000000E+00  .000000E+00  .000000E+00  .00000E+00  .00000E+00