 TITLE = "Verification of GEORGIA TECH TEST [Triax (MR)v is used]                         "
 VARIABLES = "R","Z","DISP_R","DISP_Z","EPSR","EPSTH","EPSZ","EPSRZ","SIGMAR","SIGMATH","SIGMAZ","SIGMARZ","SIGMA1","SIGMA2","SIGMA3","E_VERT","E_HORIZ","G_MOD","MRRATIO","G_RATIO"
 ZONE T="GEOM & DISP 1", N=  222, E=   63, F=FEPOINT, ET=QUADRILATERAL
  .00000E+00  .00000E+00  .00000E+00  .00000E+00  .000000E+00  .000000E+00  .000000E+00  .000000E+00  .000000E+00  .000000E+00  .000000E+00  .000000E+00  .000000E+00  .000000E+00  .000000E+00  .000000E+00  .000000E+00  .000000E+00  .00000E+00  .00000E+00
  .70000E+00  .00000E+00  .00000E+00  .00000E+00  .000000E+00  .000000E+00  .000000E+00  .000000E+00  .000000E+00  .000000E+00  .000000E+00  .000000E+00  .000000E+00  .000000E+00  .000000E+00  .000000E+00  .000000E+00  .000000E+00  .00000E+00  .00000E+00
  .14000E+01  .00000E+00  .00000E+00  .00000E+00  .000000E+00  .000000E+00  .000000E+00  .000000E+00  .000000E+00  .000000E+00  .000000E+00  .000000E+00  .000000E+00  .000000E+00  .000000E+00  .000000E+00  .000000E+00  .000000E+00  .00000E+00  .00000E+00
  .29750E+01  .00000E+00  .00000E+00  .00000E+00  .000000E+00  .000000E+00  .000000E+00  .000000E+00  .000000E+00  .000000E+00  .000000E+00  .000000E+00  .000000E+00  .000000E+00  .000000E+00  .000000E+00  .000000E+00  .000000E+00  .00000E+00  .00000E+00
  .45500E+01  .00000E+00  .00000E+00  .00000E+00  .000000E+00  .000000E+00  .000000E+00  .000000E+00  .000000E+00  .000000E+00  .000000E+00  .000000E+00  .000000E+00  .000000E+00  .000000E+00  .000000E+00  .000000E+00  .000000E+00  .00000E+00  .00000E+00
  .70500E+01  .00000E+00  .00000E+00  .00000E+00  .000000E+00  .000000E+00  .000000E+00  .000000E+00  .000000E+00  .000000E+00  .000000E+00  .000000E+00  .000000E+00  .000000E+00  .000000E+00  .000000E+00  .000000E+00  .000000E+00  .00000E+00  .00000E+00
  .95500E+01  .00000E+00  .00000E+00  .00000E+00  .000000E+00  .000000E+00  .000000E+00  .000000E+00  .000000E+00  .000000E+00  .000000E+00  .000000E+00  .000000E+00  .000000E+00  .000000E+00  .000000E+00  .000000E+00  .000000E+00  .00000E+00  .00000E+00
  .13550E+02  .00000E+00  .00000E+00  .00000E+00  .000000E+00  .000000E+00  .000000E+00  .000000E+00  .000000E+00  .000000E+00  .000000E+00  .000000E+00  .000000E+00  .000000E+00  .000000E+00  .000000E+00  .000000E+00  .000000E+00  .00000E+00  .00000E+00
  .17550E+02  .00000E+00  .00000E+00  .00000E+00  .000000E+00  .000000E+00  .000000E+00  .000000E+00  .000000E+00  .000000E+00  .000000E+00  .000000E+00  .000000E+00  .000000E+00  .000000E+00  .000000E+00  .000000E+00  .000000E+00  .00000E+00  .00000E+00
  .25050E+02  .00000E+00  .00000E+00  .00000E+00  .000000E+00  .000000E+00  .000000E+00  .000000E+00  .000000E+00  .000000E+00  .000000E+00  .000000E+00  .000000E+00  .000000E+00  .000000E+00  .000000E+00  .000000E+00  .000000E+00  .00000E+00  .00000E+00
  .32550E+02  .00000E+00  .00000E+00  .00000E+00  .000000E+00  .000000E+00  .000000E+00  .000000E+00  .000000E+00  .000000E+00  .000000E+00  .000000E+00  .000000E+00  .000000E+00  .000000E+00  .000000E+00  .000000E+00  .000000E+00  .00000E+00  .00000E+00
  .42550E+02  .00000E+00  .00000E+00  .00000E+00  .000000E+00  .000000E+00  .000000E+00  .000000E+00  .000000E+00  .000000E+00  .000000E+00  .000000E+00  .000000E+00  .000000E+00  .000000E+00  .000000E+00  .000000E+00  .000000E+00  .00000E+00  .00000E+00
  .52550E+02  .00000E+00  .00000E+00  .00000E+00  .000000E+00  .000000E+00  .000000E+00  .000000E+00  .000000E+00  .000000E+00  .000000E+00  .000000E+00  .000000E+00  .000000E+00  .000000E+00  .000000E+00  .000000E+00  .000000E+00  .00000E+00  .00000E+00
  .65050E+02  .00000E+00  .00000E+00  .00000E+00  .000000E+00  .000000E+00  .000000E+00  .000000E+00  .000000E+00  .000000E+00  .000000E+00  .000000E+00  .000000E+00  .000000E+00  .000000E+00  .000000E+00  .000000E+00  .000000E+00  .00000E+00  .00000E+00
  .77550E+02  .00000E+00  .00000E+00  .00000E+00  .000000E+00  .000000E+00  .000000E+00  .000000E+00  .000000E+00  .000000E+00  .000000E+00  .000000E+00  .000000E+00  .000000E+00  .000000E+00  .000000E+00  .000000E+00  .000000E+00  .00000E+00  .00000E+00
  .00000E+00  .10000E+02  .00000E+00 -.34318E-03  .000000E+00  .000000E+00  .000000E+00  .000000E+00  .000000E+00  .000000E+00  .000000E+00  .000000E+00  .000000E+00  .000000E+00  .000000E+00  .000000E+00  .000000E+00  .000000E+00  .00000E+00  .00000E+00
  .14000E+01  .10000E+02  .22357E-04 -.34258E-03  .000000E+00  .000000E+00  .000000E+00  .000000E+00  .000000E+00  .000000E+00  .000000E+00  .000000E+00  .000000E+00  .000000E+00  .000000E+00  .000000E+00  .000000E+00  .000000E+00  .00000E+00  .00000E+00
  .45500E+01  .10000E+02  .71694E-04 -.33654E-03  .000000E+00  .000000E+00  .000000E+00  .000000E+00  .000000E+00  .000000E+00  .000000E+00  .000000E+00  .000000E+00  .000000E+00  .000000E+00  .000000E+00  .000000E+00  .000000E+00  .00000E+00  .00000E+00
  .95500E+01  .10000E+02  .14290E-03 -.31446E-03  .000000E+00  .000000E+00  .000000E+00  .000000E+00  .000000E+00  .000000E+00  .000000E+00  .000000E+00  .000000E+00  .000000E+00  .000000E+00  .000000E+00  .000000E+00  .000000E+00  .00000E+00  .00000E+00
  .17550E+02  .10000E+02  .22459E-03 -.25885E-03  .000000E+00  .000000E+00  .000000E+00  .000000E+00  .000000E+00  .000000E+00  .000000E+00  .000000E+00  .000000E+00  .000000E+00  .000000E+00  .000000E+00  .000000E+00  .000000E+00  .00000E+00  .00000E+00
  .32550E+02  .10000E+02  .25189E-03 -.13024E-03  .000000E+00  .000000E+00  .000000E+00  .000000E+00  .000000E+00  .000000E+00  .000000E+00  .000000E+00  .000000E+00  .000000E+00  .000000E+00  .000000E+00  .000000E+00  .000000E+00  .00000E+00  .00000E+00
  .52550E+02  .10000E+02  .14460E-03 -.24312E-04  .000000E+00  .000000E+00  .000000E+00  .000000E+00  .000000E+00  .000000E+00  .000000E+00  .000000E+00  .000000E+00  .000000E+00  .000000E+00  .000000E+00  .000000E+00  .000000E+00  .00000E+00  .00000E+00
  .77550E+02  .10000E+02  .00000E+00  .61784E-05  .000000E+00  .000000E+00  .000000E+00  .000000E+00  .000000E+00  .000000E+00  .000000E+00  .000000E+00  .000000E+00  .000000E+00  .000000E+00  .000000E+00  .000000E+00  .000000E+00  .00000E+00  .00000E+00
  .00000E+00  .20000E+02  .00000E+00 -.10187E-02  .000000E+00  .000000E+00  .000000E+00  .000000E+00  .000000E+00  .000000E+00  .000000E+00  .000000E+00  .000000E+00  .000000E+00  .000000E+00  .000000E+00  .000000E+00  .000000E+00  .00000E+00  .00000E+00
  .70000E+00  .20000E+02  .22080E-04 -.10179E-02  .000000E+00  .000000E+00  .000000E+00  .000000E+00  .000000E+00  .000000E+00  .000000E+00  .000000E+00  .000000E+00  .000000E+00  .000000E+00  .000000E+00  .000000E+00  .000000E+00  .00000E+00  .00000E+00
  .14000E+01  .20000E+02  .44100E-04 -.10161E-02  .000000E+00  .000000E+00  .000000E+00  .000000E+00  .000000E+00  .000000E+00  .000000E+00  .000000E+00  .000000E+00  .000000E+00  .000000E+00  .000000E+00  .000000E+00  .000000E+00  .00000E+00  .00000E+00
  .29750E+01  .20000E+02  .92975E-04 -.10064E-02  .000000E+00  .000000E+00  .000000E+00  .000000E+00  .000000E+00  .000000E+00  .000000E+00  .000000E+00  .000000E+00  .000000E+00  .000000E+00  .000000E+00  .000000E+00  .000000E+00  .00000E+00  .00000E+00
  .45500E+01  .20000E+02  .14065E-03 -.99203E-03  .000000E+00  .000000E+00  .000000E+00  .000000E+00  .000000E+00  .000000E+00  .000000E+00  .000000E+00  .000000E+00  .000000E+00  .000000E+00  .000000E+00  .000000E+00  .000000E+00  .00000E+00  .00000E+00
  .70500E+01  .20000E+02  .21159E-03 -.95487E-03  .000000E+00  .000000E+00  .000000E+00  .000000E+00  .000000E+00  .000000E+00  .000000E+00  .000000E+00  .000000E+00  .000000E+00  .000000E+00  .000000E+00  .000000E+00  .000000E+00  .00000E+00  .00000E+00
  .95500E+01  .20000E+02  .27619E-03 -.90748E-03  .000000E+00  .000000E+00  .000000E+00  .000000E+00  .000000E+00  .000000E+00  .000000E+00  .000000E+00  .000000E+00  .000000E+00  .000000E+00  .000000E+00  .000000E+00  .000000E+00  .00000E+00  .00000E+00
  .13550E+02  .20000E+02  .35850E-03 -.80616E-03  .000000E+00  .000000E+00  .000000E+00  .000000E+00  .000000E+00  .000000E+00  .000000E+00  .000000E+00  .000000E+00  .000000E+00  .000000E+00  .000000E+00  .000000E+00  .000000E+00  .00000E+00  .00000E+00
  .17550E+02  .20000E+02  .41685E-03 -.68992E-03  .000000E+00  .000000E+00  .000000E+00  .000000E+00  .000000E+00  .000000E+00  .000000E+00  .000000E+00  .000000E+00  .000000E+00  .000000E+00  .000000E+00  .000000E+00  .000000E+00  .00000E+00  .00000E+00
  .25050E+02  .20000E+02  .45514E-03 -.46965E-03  .000000E+00  .000000E+00  .000000E+00  .000000E+00  .000000E+00  .000000E+00  .000000E+00  .000000E+00  .000000E+00  .000000E+00  .000000E+00  .000000E+00  .000000E+00  .000000E+00  .00000E+00  .00000E+00
  .32550E+02  .20000E+02  .42347E-03 -.27944E-03  .000000E+00  .000000E+00  .000000E+00  .000000E+00  .000000E+00  .000000E+00  .000000E+00  .000000E+00  .000000E+00  .000000E+00  .000000E+00  .000000E+00  .000000E+00  .000000E+00  .00000E+00  .00000E+00
  .42550E+02  .20000E+02  .33729E-03 -.11206E-03  .000000E+00  .000000E+00  .000000E+00  .000000E+00  .000000E+00  .000000E+00  .000000E+00  .000000E+00  .000000E+00  .000000E+00  .000000E+00  .000000E+00  .000000E+00  .000000E+00  .00000E+00  .00000E+00
  .52550E+02  .20000E+02  .22651E-03 -.15718E-04  .000000E+00  .000000E+00  .000000E+00  .000000E+00  .000000E+00  .000000E+00  .000000E+00  .000000E+00  .000000E+00  .000000E+00  .000000E+00  .000000E+00  .000000E+00  .000000E+00  .00000E+00  .00000E+00
  .65050E+02  .20000E+02  .10358E-03  .31794E-04  .000000E+00  .000000E+00  .000000E+00  .000000E+00  .000000E+00  .000000E+00  .000000E+00  .000000E+00  .000000E+00  .000000E+00  .000000E+00  .000000E+00  .000000E+00  .000000E+00  .00000E+00  .00000E+00
  .77550E+02  .20000E+02  .00000E+00  .44543E-04  .000000E+00  .000000E+00  .000000E+00  .000000E+00  .000000E+00  .000000E+00  .000000E+00  .000000E+00  .000000E+00  .000000E+00  .000000E+00  .000000E+00  .000000E+00  .000000E+00  .00000E+00  .00000E+00
  .00000E+00  .25000E+02  .00000E+00 -.15309E-02  .000000E+00  .000000E+00  .000000E+00  .000000E+00  .000000E+00  .000000E+00  .000000E+00  .000000E+00  .000000E+00  .000000E+00  .000000E+00  .000000E+00  .000000E+00  .000000E+00  .00000E+00  .00000E+00
  .14000E+01  .25000E+02  .62347E-04 -.15262E-02  .000000E+00  .000000E+00  .000000E+00  .000000E+00  .000000E+00  .000000E+00  .000000E+00  .000000E+00  .000000E+00  .000000E+00  .000000E+00  .000000E+00  .000000E+00  .000000E+00  .00000E+00  .00000E+00
  .45500E+01  .25000E+02  .19808E-03 -.14831E-02  .000000E+00  .000000E+00  .000000E+00  .000000E+00  .000000E+00  .000000E+00  .000000E+00  .000000E+00  .000000E+00  .000000E+00  .000000E+00  .000000E+00  .000000E+00  .000000E+00  .00000E+00  .00000E+00
  .95500E+01  .25000E+02  .38101E-03 -.13352E-02  .000000E+00  .000000E+00  .000000E+00  .000000E+00  .000000E+00  .000000E+00  .000000E+00  .000000E+00  .000000E+00  .000000E+00  .000000E+00  .000000E+00  .000000E+00  .000000E+00  .00000E+00  .00000E+00
  .17550E+02  .25000E+02  .54828E-03 -.98508E-03  .000000E+00  .000000E+00  .000000E+00  .000000E+00  .000000E+00  .000000E+00  .000000E+00  .000000E+00  .000000E+00  .000000E+00  .000000E+00  .000000E+00  .000000E+00  .000000E+00  .00000E+00  .00000E+00
  .32550E+02  .25000E+02  .50544E-03 -.35945E-03  .000000E+00  .000000E+00  .000000E+00  .000000E+00  .000000E+00  .000000E+00  .000000E+00  .000000E+00  .000000E+00  .000000E+00  .000000E+00  .000000E+00  .000000E+00  .000000E+00  .00000E+00  .00000E+00
  .52550E+02  .25000E+02  .24741E-03 -.24685E-05  .000000E+00  .000000E+00  .000000E+00  .000000E+00  .000000E+00  .000000E+00  .000000E+00  .000000E+00  .000000E+00  .000000E+00  .000000E+00  .000000E+00  .000000E+00  .000000E+00  .00000E+00  .00000E+00
  .77550E+02  .25000E+02  .00000E+00  .70593E-04  .000000E+00  .000000E+00  .000000E+00  .000000E+00  .000000E+00  .000000E+00  .000000E+00  .000000E+00  .000000E+00  .000000E+00  .000000E+00  .000000E+00  .000000E+00  .000000E+00  .00000E+00  .00000E+00
  .00000E+00  .30000E+02  .00000E+00 -.22570E-02  .000000E+00  .000000E+00  .000000E+00  .000000E+00  .000000E+00  .000000E+00  .000000E+00  .000000E+00  .000000E+00  .000000E+00  .000000E+00  .000000E+00  .000000E+00  .000000E+00  .00000E+00  .00000E+00
  .70000E+00  .30000E+02  .43785E-04 -.22549E-02  .000000E+00  .000000E+00  .000000E+00  .000000E+00  .000000E+00  .000000E+00  .000000E+00  .000000E+00  .000000E+00  .000000E+00  .000000E+00  .000000E+00  .000000E+00  .000000E+00  .00000E+00  .00000E+00
  .14000E+01  .30000E+02  .87373E-04 -.22489E-02  .000000E+00  .000000E+00  .000000E+00  .000000E+00  .000000E+00  .000000E+00  .000000E+00  .000000E+00  .000000E+00  .000000E+00  .000000E+00  .000000E+00  .000000E+00  .000000E+00  .00000E+00  .00000E+00
  .29750E+01  .30000E+02  .18368E-03 -.22198E-02  .000000E+00  .000000E+00  .000000E+00  .000000E+00  .000000E+00  .000000E+00  .000000E+00  .000000E+00  .000000E+00  .000000E+00  .000000E+00  .000000E+00  .000000E+00  .000000E+00  .00000E+00  .00000E+00
  .45500E+01  .30000E+02  .27595E-03 -.21723E-02  .000000E+00  .000000E+00  .000000E+00  .000000E+00  .000000E+00  .000000E+00  .000000E+00  .000000E+00  .000000E+00  .000000E+00  .000000E+00  .000000E+00  .000000E+00  .000000E+00  .00000E+00  .00000E+00
  .70500E+01  .30000E+02  .40878E-03 -.20584E-02  .000000E+00  .000000E+00  .000000E+00  .000000E+00  .000000E+00  .000000E+00  .000000E+00  .000000E+00  .000000E+00  .000000E+00  .000000E+00  .000000E+00  .000000E+00  .000000E+00  .00000E+00  .00000E+00
  .95500E+01  .30000E+02  .52096E-03 -.19110E-02  .000000E+00  .000000E+00  .000000E+00  .000000E+00  .000000E+00  .000000E+00  .000000E+00  .000000E+00  .000000E+00  .000000E+00  .000000E+00  .000000E+00  .000000E+00  .000000E+00  .00000E+00  .00000E+00
  .13550E+02  .30000E+02  .64242E-03 -.16258E-02  .000000E+00  .000000E+00  .000000E+00  .000000E+00  .000000E+00  .000000E+00  .000000E+00  .000000E+00  .000000E+00  .000000E+00  .000000E+00  .000000E+00  .000000E+00  .000000E+00  .00000E+00  .00000E+00
  .17550E+02  .30000E+02  .70416E-03 -.13253E-02  .000000E+00  .000000E+00  .000000E+00  .000000E+00  .000000E+00  .000000E+00  .000000E+00  .000000E+00  .000000E+00  .000000E+00  .000000E+00  .000000E+00  .000000E+00  .000000E+00  .00000E+00  .00000E+00
  .25050E+02  .30000E+02  .68473E-03 -.80395E-03  .000000E+00  .000000E+00  .000000E+00  .000000E+00  .000000E+00  .000000E+00  .000000E+00  .000000E+00  .000000E+00  .000000E+00  .000000E+00  .000000E+00  .000000E+00  .000000E+00  .00000E+00  .00000E+00
  .32550E+02  .30000E+02  .57306E-03 -.42175E-03  .000000E+00  .000000E+00  .000000E+00  .000000E+00  .000000E+00  .000000E+00  .000000E+00  .000000E+00  .000000E+00  .000000E+00  .000000E+00  .000000E+00  .000000E+00  .000000E+00  .00000E+00  .00000E+00
  .42550E+02  .30000E+02  .40306E-03 -.13230E-03  .000000E+00  .000000E+00  .000000E+00  .000000E+00  .000000E+00  .000000E+00  .000000E+00  .000000E+00  .000000E+00  .000000E+00  .000000E+00  .000000E+00  .000000E+00  .000000E+00  .00000E+00  .00000E+00
  .52550E+02  .30000E+02  .25335E-03  .16013E-04  .000000E+00  .000000E+00  .000000E+00  .000000E+00  .000000E+00  .000000E+00  .000000E+00  .000000E+00  .000000E+00  .000000E+00  .000000E+00  .000000E+00  .000000E+00  .000000E+00  .00000E+00  .00000E+00
  .65050E+02  .30000E+02  .11104E-03  .81290E-04  .000000E+00  .000000E+00  .000000E+00  .000000E+00  .000000E+00  .000000E+00  .000000E+00  .000000E+00  .000000E+00  .000000E+00  .000000E+00  .000000E+00  .000000E+00  .000000E+00  .00000E+00  .00000E+00
  .77550E+02  .30000E+02  .00000E+00  .97433E-04  .000000E+00  .000000E+00  .000000E+00  .000000E+00  .000000E+00  .000000E+00  .000000E+00  .000000E+00  .000000E+00  .000000E+00  .000000E+00  .000000E+00  .000000E+00  .000000E+00  .00000E+00  .00000E+00
  .00000E+00  .33000E+02  .00000E+00 -.28434E-02  .000000E+00  .000000E+00  .000000E+00  .000000E+00  .000000E+00  .000000E+00  .000000E+00  .000000E+00  .000000E+00  .000000E+00  .000000E+00  .000000E+00  .000000E+00  .000000E+00  .00000E+00  .00000E+00
  .14000E+01  .33000E+02  .10859E-03 -.28316E-02  .000000E+00  .000000E+00  .000000E+00  .000000E+00  .000000E+00  .000000E+00  .000000E+00  .000000E+00  .000000E+00  .000000E+00  .000000E+00  .000000E+00  .000000E+00  .000000E+00  .00000E+00  .00000E+00
  .45500E+01  .33000E+02  .34188E-03 -.27232E-02  .000000E+00  .000000E+00  .000000E+00  .000000E+00  .000000E+00  .000000E+00  .000000E+00  .000000E+00  .000000E+00  .000000E+00  .000000E+00  .000000E+00  .000000E+00  .000000E+00  .00000E+00  .00000E+00
  .95500E+01  .33000E+02  .63541E-03 -.23564E-02  .000000E+00  .000000E+00  .000000E+00  .000000E+00  .000000E+00  .000000E+00  .000000E+00  .000000E+00  .000000E+00  .000000E+00  .000000E+00  .000000E+00  .000000E+00  .000000E+00  .00000E+00  .00000E+00
  .17550E+02  .33000E+02  .82027E-03 -.15665E-02  .000000E+00  .000000E+00  .000000E+00  .000000E+00  .000000E+00  .000000E+00  .000000E+00  .000000E+00  .000000E+00  .000000E+00  .000000E+00  .000000E+00  .000000E+00  .000000E+00  .00000E+00  .00000E+00
  .32550E+02  .33000E+02  .60502E-03 -.45130E-03  .000000E+00  .000000E+00  .000000E+00  .000000E+00  .000000E+00  .000000E+00  .000000E+00  .000000E+00  .000000E+00  .000000E+00  .000000E+00  .000000E+00  .000000E+00  .000000E+00  .00000E+00  .00000E+00
  .52550E+02  .33000E+02  .24898E-03  .29928E-04  .000000E+00  .000000E+00  .000000E+00  .000000E+00  .000000E+00  .000000E+00  .000000E+00  .000000E+00  .000000E+00  .000000E+00  .000000E+00  .000000E+00  .000000E+00  .000000E+00  .00000E+00  .00000E+00
  .77550E+02  .33000E+02  .00000E+00  .11352E-03  .000000E+00  .000000E+00  .000000E+00  .000000E+00  .000000E+00  .000000E+00  .000000E+00  .000000E+00  .000000E+00  .000000E+00  .000000E+00  .000000E+00  .000000E+00  .000000E+00  .00000E+00  .00000E+00
  .00000E+00  .36000E+02  .00000E+00 -.35853E-02  .000000E+00  .000000E+00  .000000E+00  .000000E+00  .000000E+00  .000000E+00  .000000E+00  .000000E+00  .000000E+00  .000000E+00  .000000E+00  .000000E+00  .000000E+00  .000000E+00  .00000E+00  .00000E+00
  .70000E+00  .36000E+02  .68045E-04 -.35812E-02  .000000E+00  .000000E+00  .000000E+00  .000000E+00  .000000E+00  .000000E+00  .000000E+00  .000000E+00  .000000E+00  .000000E+00  .000000E+00  .000000E+00  .000000E+00  .000000E+00  .00000E+00  .00000E+00
  .14000E+01  .36000E+02  .13567E-03 -.35692E-02  .000000E+00  .000000E+00  .000000E+00  .000000E+00  .000000E+00  .000000E+00  .000000E+00  .000000E+00  .000000E+00  .000000E+00  .000000E+00  .000000E+00  .000000E+00  .000000E+00  .00000E+00  .00000E+00
  .29750E+01  .36000E+02  .28454E-03 -.35121E-02  .000000E+00  .000000E+00  .000000E+00  .000000E+00  .000000E+00  .000000E+00  .000000E+00  .000000E+00  .000000E+00  .000000E+00  .000000E+00  .000000E+00  .000000E+00  .000000E+00  .00000E+00  .00000E+00
  .45500E+01  .36000E+02  .42522E-03 -.34175E-02  .000000E+00  .000000E+00  .000000E+00  .000000E+00  .000000E+00  .000000E+00  .000000E+00  .000000E+00  .000000E+00  .000000E+00  .000000E+00  .000000E+00  .000000E+00  .000000E+00  .00000E+00  .00000E+00
  .70500E+01  .36000E+02  .62227E-03 -.31946E-02  .000000E+00  .000000E+00  .000000E+00  .000000E+00  .000000E+00  .000000E+00  .000000E+00  .000000E+00  .000000E+00  .000000E+00  .000000E+00  .000000E+00  .000000E+00  .000000E+00  .00000E+00  .00000E+00
  .95500E+01  .36000E+02  .77833E-03 -.29045E-02  .000000E+00  .000000E+00  .000000E+00  .000000E+00  .000000E+00  .000000E+00  .000000E+00  .000000E+00  .000000E+00  .000000E+00  .000000E+00  .000000E+00  .000000E+00  .000000E+00  .00000E+00  .00000E+00
  .13550E+02  .36000E+02  .91646E-03 -.23558E-02  .000000E+00  .000000E+00  .000000E+00  .000000E+00  .000000E+00  .000000E+00  .000000E+00  .000000E+00  .000000E+00  .000000E+00  .000000E+00  .000000E+00  .000000E+00  .000000E+00  .00000E+00  .00000E+00
  .17550E+02  .36000E+02  .94368E-03 -.18179E-02  .000000E+00  .000000E+00  .000000E+00  .000000E+00  .000000E+00  .000000E+00  .000000E+00  .000000E+00  .000000E+00  .000000E+00  .000000E+00  .000000E+00  .000000E+00  .000000E+00  .00000E+00  .00000E+00
  .25050E+02  .36000E+02  .82187E-03 -.99997E-03  .000000E+00  .000000E+00  .000000E+00  .000000E+00  .000000E+00  .000000E+00  .000000E+00  .000000E+00  .000000E+00  .000000E+00  .000000E+00  .000000E+00  .000000E+00  .000000E+00  .00000E+00  .00000E+00
  .32550E+02  .36000E+02  .62285E-03 -.46841E-03  .000000E+00  .000000E+00  .000000E+00  .000000E+00  .000000E+00  .000000E+00  .000000E+00  .000000E+00  .000000E+00  .000000E+00  .000000E+00  .000000E+00  .000000E+00  .000000E+00  .00000E+00  .00000E+00
  .42550E+02  .36000E+02  .39956E-03 -.11895E-03  .000000E+00  .000000E+00  .000000E+00  .000000E+00  .000000E+00  .000000E+00  .000000E+00  .000000E+00  .000000E+00  .000000E+00  .000000E+00  .000000E+00  .000000E+00  .000000E+00  .00000E+00  .00000E+00
  .52550E+02  .36000E+02  .23884E-03  .44085E-04  .000000E+00  .000000E+00  .000000E+00  .000000E+00  .000000E+00  .000000E+00  .000000E+00  .000000E+00  .000000E+00  .000000E+00  .000000E+00  .000000E+00  .000000E+00  .000000E+00  .00000E+00  .00000E+00
  .65050E+02  .36000E+02  .10242E-03  .11337E-03  .000000E+00  .000000E+00  .000000E+00  .000000E+00  .000000E+00  .000000E+00  .000000E+00  .000000E+00  .000000E+00  .000000E+00  .000000E+00  .000000E+00  .000000E+00  .000000E+00  .00000E+00  .00000E+00
  .77550E+02  .36000E+02  .00000E+00  .12895E-03  .000000E+00  .000000E+00  .000000E+00  .000000E+00  .000000E+00  .000000E+00  .000000E+00  .000000E+00  .000000E+00  .000000E+00  .000000E+00  .000000E+00  .000000E+00  .000000E+00  .00000E+00  .00000E+00
  .00000E+00  .38000E+02  .00000E+00 -.41885E-02  .000000E+00  .000000E+00  .000000E+00  .000000E+00  .000000E+00  .000000E+00  .000000E+00  .000000E+00  .000000E+00  .000000E+00  .000000E+00  .000000E+00  .000000E+00  .000000E+00  .00000E+00  .00000E+00
  .14000E+01  .38000E+02  .15862E-03 -.41678E-02  .000000E+00  .000000E+00  .000000E+00  .000000E+00  .000000E+00  .000000E+00  .000000E+00  .000000E+00  .000000E+00  .000000E+00  .000000E+00  .000000E+00  .000000E+00  .000000E+00  .00000E+00  .00000E+00
  .45500E+01  .38000E+02  .49524E-03 -.39766E-02  .000000E+00  .000000E+00  .000000E+00  .000000E+00  .000000E+00  .000000E+00  .000000E+00  .000000E+00  .000000E+00  .000000E+00  .000000E+00  .000000E+00  .000000E+00  .000000E+00  .00000E+00  .00000E+00
  .95500E+01  .38000E+02  .89065E-03 -.33351E-02  .000000E+00  .000000E+00  .000000E+00  .000000E+00  .000000E+00  .000000E+00  .000000E+00  .000000E+00  .000000E+00  .000000E+00  .000000E+00  .000000E+00  .000000E+00  .000000E+00  .00000E+00  .00000E+00
  .17550E+02  .38000E+02  .10365E-02 -.20017E-02  .000000E+00  .000000E+00  .000000E+00  .000000E+00  .000000E+00  .000000E+00  .000000E+00  .000000E+00  .000000E+00  .000000E+00  .000000E+00  .000000E+00  .000000E+00  .000000E+00  .00000E+00  .00000E+00
  .32550E+02  .38000E+02  .62485E-03 -.47422E-03  .000000E+00  .000000E+00  .000000E+00  .000000E+00  .000000E+00  .000000E+00  .000000E+00  .000000E+00  .000000E+00  .000000E+00  .000000E+00  .000000E+00  .000000E+00  .000000E+00  .00000E+00  .00000E+00
  .52550E+02  .38000E+02  .22822E-03  .54245E-04  .000000E+00  .000000E+00  .000000E+00  .000000E+00  .000000E+00  .000000E+00  .000000E+00  .000000E+00  .000000E+00  .000000E+00  .000000E+00  .000000E+00  .000000E+00  .000000E+00  .00000E+00  .00000E+00
  .77550E+02  .38000E+02  .00000E+00  .13863E-03  .000000E+00  .000000E+00  .000000E+00  .000000E+00  .000000E+00  .000000E+00  .000000E+00  .000000E+00  .000000E+00  .000000E+00  .000000E+00  .000000E+00  .000000E+00  .000000E+00  .00000E+00  .00000E+00
  .00000E+00  .40000E+02  .00000E+00 -.49010E-02  .000000E+00  .000000E+00  .000000E+00  .000000E+00  .000000E+00  .000000E+00  .000000E+00  .000000E+00  .000000E+00  .000000E+00  .000000E+00  .000000E+00  .000000E+00  .000000E+00  .00000E+00  .00000E+00
  .70000E+00  .40000E+02  .93659E-04 -.48945E-02  .000000E+00  .000000E+00  .000000E+00  .000000E+00  .000000E+00  .000000E+00  .000000E+00  .000000E+00  .000000E+00  .000000E+00  .000000E+00  .000000E+00  .000000E+00  .000000E+00  .00000E+00  .00000E+00
  .14000E+01  .40000E+02  .18664E-03 -.48752E-02  .000000E+00  .000000E+00  .000000E+00  .000000E+00  .000000E+00  .000000E+00  .000000E+00  .000000E+00  .000000E+00  .000000E+00  .000000E+00  .000000E+00  .000000E+00  .000000E+00  .00000E+00  .00000E+00
  .29750E+01  .40000E+02  .39018E-03 -.47845E-02  .000000E+00  .000000E+00  .000000E+00  .000000E+00  .000000E+00  .000000E+00  .000000E+00  .000000E+00  .000000E+00  .000000E+00  .000000E+00  .000000E+00  .000000E+00  .000000E+00  .00000E+00  .00000E+00
  .45500E+01  .40000E+02  .57952E-03 -.46333E-02  .000000E+00  .000000E+00  .000000E+00  .000000E+00  .000000E+00  .000000E+00  .000000E+00  .000000E+00  .000000E+00  .000000E+00  .000000E+00  .000000E+00  .000000E+00  .000000E+00  .00000E+00  .00000E+00
  .70500E+01  .40000E+02  .83588E-03 -.42810E-02  .000000E+00  .000000E+00  .000000E+00  .000000E+00  .000000E+00  .000000E+00  .000000E+00  .000000E+00  .000000E+00  .000000E+00  .000000E+00  .000000E+00  .000000E+00  .000000E+00  .00000E+00  .00000E+00
  .95500E+01  .40000E+02  .10243E-02 -.38265E-02  .000000E+00  .000000E+00  .000000E+00  .000000E+00  .000000E+00  .000000E+00  .000000E+00  .000000E+00  .000000E+00  .000000E+00  .000000E+00  .000000E+00  .000000E+00  .000000E+00  .00000E+00  .00000E+00
  .13550E+02  .40000E+02  .11556E-02 -.29789E-02  .000000E+00  .000000E+00  .000000E+00  .000000E+00  .000000E+00  .000000E+00  .000000E+00  .000000E+00  .000000E+00  .000000E+00  .000000E+00  .000000E+00  .000000E+00  .000000E+00  .00000E+00  .00000E+00
  .17550E+02  .40000E+02  .11233E-02 -.21820E-02  .000000E+00  .000000E+00  .000000E+00  .000000E+00  .000000E+00  .000000E+00  .000000E+00  .000000E+00  .000000E+00  .000000E+00  .000000E+00  .000000E+00  .000000E+00  .000000E+00  .00000E+00  .00000E+00
  .25050E+02  .40000E+02  .88127E-03 -.11058E-02  .000000E+00  .000000E+00  .000000E+00  .000000E+00  .000000E+00  .000000E+00  .000000E+00  .000000E+00  .000000E+00  .000000E+00  .000000E+00  .000000E+00  .000000E+00  .000000E+00  .00000E+00  .00000E+00
  .32550E+02  .40000E+02  .61553E-03 -.47391E-03  .000000E+00  .000000E+00  .000000E+00  .000000E+00  .000000E+00  .000000E+00  .000000E+00  .000000E+00  .000000E+00  .000000E+00  .000000E+00  .000000E+00  .000000E+00  .000000E+00  .00000E+00  .00000E+00
  .42550E+02  .40000E+02  .37088E-03 -.98986E-04  .000000E+00  .000000E+00  .000000E+00  .000000E+00  .000000E+00  .000000E+00  .000000E+00  .000000E+00  .000000E+00  .000000E+00  .000000E+00  .000000E+00  .000000E+00  .000000E+00  .00000E+00  .00000E+00
  .52550E+02  .40000E+02  .21562E-03  .63741E-04  .000000E+00  .000000E+00  .000000E+00  .000000E+00  .000000E+00  .000000E+00  .000000E+00  .000000E+00  .000000E+00  .000000E+00  .000000E+00  .000000E+00  .000000E+00  .000000E+00  .00000E+00  .00000E+00
  .65050E+02  .40000E+02  .92038E-04  .13345E-03  .000000E+00  .000000E+00  .000000E+00  .000000E+00  .000000E+00  .000000E+00  .000000E+00  .000000E+00  .000000E+00  .000000E+00  .000000E+00  .000000E+00  .000000E+00  .000000E+00  .00000E+00  .00000E+00
  .77550E+02  .40000E+02  .00000E+00  .14791E-03  .000000E+00  .000000E+00  .000000E+00  .000000E+00  .000000E+00  .000000E+00  .000000E+00  .000000E+00  .000000E+00  .000000E+00  .000000E+00  .000000E+00  .000000E+00  .000000E+00  .00000E+00  .00000E+00
  .00000E+00  .41000E+02  .00000E+00 -.53052E-02  .000000E+00  .000000E+00  .000000E+00  .000000E+00  .000000E+00  .000000E+00  .000000E+00  .000000E+00  .000000E+00  .000000E+00  .000000E+00  .000000E+00  .000000E+00  .000000E+00  .00000E+00  .00000E+00
  .14000E+01  .41000E+02  .20317E-03 -.52760E-02  .000000E+00  .000000E+00  .000000E+00  .000000E+00  .000000E+00  .000000E+00  .000000E+00  .000000E+00  .000000E+00  .000000E+00  .000000E+00  .000000E+00  .000000E+00  .000000E+00  .00000E+00  .00000E+00
  .45500E+01  .41000E+02  .62939E-03 -.50032E-02  .000000E+00  .000000E+00  .000000E+00  .000000E+00  .000000E+00  .000000E+00  .000000E+00  .000000E+00  .000000E+00  .000000E+00  .000000E+00  .000000E+00  .000000E+00  .000000E+00  .00000E+00  .00000E+00
  .95500E+01  .41000E+02  .10980E-02 -.40975E-02  .000000E+00  .000000E+00  .000000E+00  .000000E+00  .000000E+00  .000000E+00  .000000E+00  .000000E+00  .000000E+00  .000000E+00  .000000E+00  .000000E+00  .000000E+00  .000000E+00  .00000E+00  .00000E+00
  .17550E+02  .41000E+02  .11676E-02 -.22747E-02  .000000E+00  .000000E+00  .000000E+00  .000000E+00  .000000E+00  .000000E+00  .000000E+00  .000000E+00  .000000E+00  .000000E+00  .000000E+00  .000000E+00  .000000E+00  .000000E+00  .00000E+00  .00000E+00
  .32550E+02  .41000E+02  .60544E-03 -.47195E-03  .000000E+00  .000000E+00  .000000E+00  .000000E+00  .000000E+00  .000000E+00  .000000E+00  .000000E+00  .000000E+00  .000000E+00  .000000E+00  .000000E+00  .000000E+00  .000000E+00  .00000E+00  .00000E+00
  .52550E+02  .41000E+02  .20812E-03  .68512E-04  .000000E+00  .000000E+00  .000000E+00  .000000E+00  .000000E+00  .000000E+00  .000000E+00  .000000E+00  .000000E+00  .000000E+00  .000000E+00  .000000E+00  .000000E+00  .000000E+00  .00000E+00  .00000E+00
  .77550E+02  .41000E+02  .00000E+00  .15227E-03  .000000E+00  .000000E+00  .000000E+00  .000000E+00  .000000E+00  .000000E+00  .000000E+00  .000000E+00  .000000E+00  .000000E+00  .000000E+00  .000000E+00  .000000E+00  .000000E+00  .00000E+00  .00000E+00