# vtk DataFile Version 2.0
./vtk
ASCII

DATASET UNSTRUCTURED_GRID
POINTS 3327 double
0 0 0.0
0.4286 0 0.0
0.8571 0 0.0
1.2857 0 0.0
1.7143 0 0.0
2.1429 0 0.0
2.5714 0 0.0
3 0 0.0
3.4286 0 0.0
3.8571 0 0.0
4.2857 0 0.0
4.7143 0 0.0
5.1429 0 0.0
5.5714 0 0.0
6 0 0.0
6.7775 0 0.0
7.5549 0 0.0
8.5339 0 0.0
9.5128 0 0.0
10.7455 0 0.0
11.9781 0 0.0
13.5302 0 0.0
15.0823 0 0.0
17.0367 0 0.0
18.991 0 0.0
21.4518 0 0.0
23.9126 0 0.0
27.0111 0 0.0
30.1097 0 0.0
34.0112 0 0.0
37.9127 0 0.0
42.8254 0 0.0
47.738 0 0.0
53.9238 0 0.0
60.1096 0 0.0
67.8984 0 0.0
75.6873 0 0.0
85.4946 0 0.0
95.302 0 0.0
107.651 0 0.0
120 0 0.0
0 -0.1139 0.0
0.8571 -0.1139 0.0
1.7143 -0.1139 0.0
2.5714 -0.1139 0.0
3.4286 -0.1139 0.0
4.2857 -0.1139 0.0
5.1429 -0.1139 0.0
6 -0.1139 0.0
7.5549 -0.1139 0.0
9.5128 -0.1139 0.0
11.9781 -0.1139 0.0
15.0823 -0.1139 0.0
18.991 -0.1139 0.0
23.9126 -0.1139 0.0
30.1097 -0.1139 0.0
37.9127 -0.1139 0.0
47.738 -0.1139 0.0
60.1096 -0.1139 0.0
75.6873 -0.1139 0.0
95.302 -0.1139 0.0
120 -0.1139 0.0
0 -0.2278 0.0
0.4286 -0.2278 0.0
0.8571 -0.2278 0.0
1.2857 -0.2278 0.0
1.7143 -0.2278 0.0
2.1429 -0.2278 0.0
2.5714 -0.2278 0.0
3 -0.2278 0.0
3.4286 -0.2278 0.0
3.8571 -0.2278 0.0
4.2857 -0.2278 0.0
4.7143 -0.2278 0.0
5.1429 -0.2278 0.0
5.5714 -0.2278 0.0
6 -0.2278 0.0
6.7775 -0.2278 0.0
7.5549 -0.2278 0.0
8.5339 -0.2278 0.0
9.5128 -0.2278 0.0
10.7455 -0.2278 0.0
11.9781 -0.2278 0.0
13.5302 -0.2278 0.0
15.0823 -0.2278 0.0
17.0367 -0.2278 0.0
18.991 -0.2278 0.0
21.4518 -0.2278 0.0
23.9126 -0.2278 0.0
27.0111 -0.2278 0.0
30.1097 -0.2278 0.0
34.0112 -0.2278 0.0
37.9127 -0.2278 0.0
42.8254 -0.2278 0.0
47.738 -0.2278 0.0
53.9238 -0.2278 0.0
60.1096 -0.2278 0.0
67.8984 -0.2278 0.0
75.6873 -0.2278 0.0
85.4946 -0.2278 0.0
95.302 -0.2278 0.0
107.651 -0.2278 0.0
120 -0.2278 0.0
0 -0.3417 0.0
0.8571 -0.3417 0.0
1.7143 -0.3417 0.0
2.5714 -0.3417 0.0
3.4286 -0.3417 0.0
4.2857 -0.3417 0.0
5.1429 -0.3417 0.0
6 -0.3417 0.0
7.5549 -0.3417 0.0
9.5128 -0.3417 0.0
11.9781 -0.3417 0.0
15.0823 -0.3417 0.0
18.991 -0.3417 0.0
23.9126 -0.3417 0.0
30.1097 -0.3417 0.0
37.9127 -0.3417 0.0
47.738 -0.3417 0.0
60.1096 -0.3417 0.0
75.6873 -0.3417 0.0
95.302 -0.3417 0.0
120 -0.3417 0.0
0 -0.4556 0.0
0.4286 -0.4556 0.0
0.8571 -0.4556 0.0
1.2857 -0.4556 0.0
1.7143 -0.4556 0.0
2.1429 -0.4556 0.0
2.5714 -0.4556 0.0
3 -0.4556 0.0
3.4286 -0.4556 0.0
3.8571 -0.4556 0.0
4.2857 -0.4556 0.0
4.7143 -0.4556 0.0
5.1429 -0.4556 0.0
5.5714 -0.4556 0.0
6 -0.4556 0.0
6.7775 -0.4556 0.0
7.5549 -0.4556 0.0
8.5339 -0.4556 0.0
9.5128 -0.4556 0.0
10.7455 -0.4556 0.0
11.9781 -0.4556 0.0
13.5302 -0.4556 0.0
15.0823 -0.4556 0.0
17.0367 -0.4556 0.0
18.991 -0.4556 0.0
21.4518 -0.4556 0.0
23.9126 -0.4556 0.0
27.0111 -0.4556 0.0
30.1097 -0.4556 0.0
34.0112 -0.4556 0.0
37.9127 -0.4556 0.0
42.8254 -0.4556 0.0
47.738 -0.4556 0.0
53.9238 -0.4556 0.0
60.1096 -0.4556 0.0
67.8984 -0.4556 0.0
75.6873 -0.4556 0.0
85.4946 -0.4556 0.0
95.302 -0.4556 0.0
107.651 -0.4556 0.0
120 -0.4556 0.0
0 -0.5695 0.0
0.8571 -0.5695 0.0
1.7143 -0.5695 0.0
2.5714 -0.5695 0.0
3.4286 -0.5695 0.0
4.2857 -0.5695 0.0
5.1429 -0.5695 0.0
6 -0.5695 0.0
7.5549 -0.5695 0.0
9.5128 -0.5695 0.0
11.9781 -0.5695 0.0
15.0823 -0.5695 0.0
18.991 -0.5695 0.0
23.9126 -0.5695 0.0
30.1097 -0.5695 0.0
37.9127 -0.5695 0.0
47.738 -0.5695 0.0
60.1096 -0.5695 0.0
75.6873 -0.5695 0.0
95.302 -0.5695 0.0
120 -0.5695 0.0
0 -0.6834 0.0
0.4286 -0.6834 0.0
0.8571 -0.6834 0.0
1.2857 -0.6834 0.0
1.7143 -0.6834 0.0
2.1429 -0.6834 0.0
2.5714 -0.6834 0.0
3 -0.6834 0.0
3.4286 -0.6834 0.0
3.8571 -0.6834 0.0
4.2857 -0.6834 0.0
4.7143 -0.6834 0.0
5.1429 -0.6834 0.0
5.5714 -0.6834 0.0
6 -0.6834 0.0
6.7775 -0.6834 0.0
7.5549 -0.6834 0.0
8.5339 -0.6834 0.0
9.5128 -0.6834 0.0
10.7455 -0.6834 0.0
11.9781 -0.6834 0.0
13.5302 -0.6834 0.0
15.0823 -0.6834 0.0
17.0367 -0.6834 0.0
18.991 -0.6834 0.0
21.4518 -0.6834 0.0
23.9126 -0.6834 0.0
27.0111 -0.6834 0.0
30.1097 -0.6834 0.0
34.0112 -0.6834 0.0
37.9127 -0.6834 0.0
42.8254 -0.6834 0.0
47.738 -0.6834 0.0
53.9238 -0.6834 0.0
60.1096 -0.6834 0.0
67.8984 -0.6834 0.0
75.6873 -0.6834 0.0
85.4946 -0.6834 0.0
95.302 -0.6834 0.0
107.651 -0.6834 0.0
120 -0.6834 0.0
0 -0.7973 0.0
0.8571 -0.7973 0.0
1.7143 -0.7973 0.0
2.5714 -0.7973 0.0
3.4286 -0.7973 0.0
4.2857 -0.7973 0.0
5.1429 -0.7973 0.0
6 -0.7973 0.0
7.5549 -0.7973 0.0
9.5128 -0.7973 0.0
11.9781 -0.7973 0.0
15.0823 -0.7973 0.0
18.991 -0.7973 0.0
23.9126 -0.7973 0.0
30.1097 -0.7973 0.0
37.9127 -0.7973 0.0
47.738 -0.7973 0.0
60.1096 -0.7973 0.0
75.6873 -0.7973 0.0
95.302 -0.7973 0.0
120 -0.7973 0.0
0 -0.9112 0.0
0.4286 -0.9112 0.0
0.8571 -0.9112 0.0
1.2857 -0.9112 0.0
1.7143 -0.9112 0.0
2.1429 -0.9112 0.0
2.5714 -0.9112 0.0
3 -0.9112 0.0
3.4286 -0.9112 0.0
3.8571 -0.9112 0.0
4.2857 -0.9112 0.0
4.7143 -0.9112 0.0
5.1429 -0.9112 0.0
5.5714 -0.9112 0.0
6 -0.9112 0.0
6.7775 -0.9112 0.0
7.5549 -0.9112 0.0
8.5339 -0.9112 0.0
9.5128 -0.9112 0.0
10.7455 -0.9112 0.0
11.9781 -0.9112 0.0
13.5302 -0.9112 0.0
15.0823 -0.9112 0.0
17.0367 -0.9112 0.0
18.991 -0.9112 0.0
21.4518 -0.9112 0.0
23.9126 -0.9112 0.0
27.0111 -0.9112 0.0
30.1097 -0.9112 0.0
34.0112 -0.9112 0.0
37.9127 -0.9112 0.0
42.8254 -0.9112 0.0
47.738 -0.9112 0.0
53.9238 -0.9112 0.0
60.1096 -0.9112 0.0
67.8984 -0.9112 0.0
75.6873 -0.9112 0.0
85.4946 -0.9112 0.0
95.302 -0.9112 0.0
107.651 -0.9112 0.0
120 -0.9112 0.0
0 -1.0251 0.0
0.8571 -1.0251 0.0
1.7143 -1.0251 0.0
2.5714 -1.0251 0.0
3.4286 -1.0251 0.0
4.2857 -1.0251 0.0
5.1429 -1.0251 0.0
6 -1.0251 0.0
7.5549 -1.0251 0.0
9.5128 -1.0251 0.0
11.9781 -1.0251 0.0
15.0823 -1.0251 0.0
18.991 -1.0251 0.0
23.9126 -1.0251 0.0
30.1097 -1.0251 0.0
37.9127 -1.0251 0.0
47.738 -1.0251 0.0
60.1096 -1.0251 0.0
75.6873 -1.0251 0.0
95.302 -1.0251 0.0
120 -1.0251 0.0
0 -1.1389 0.0
0.4286 -1.1389 0.0
0.8571 -1.1389 0.0
1.2857 -1.1389 0.0
1.7143 -1.1389 0.0
2.1429 -1.1389 0.0
2.5714 -1.1389 0.0
3 -1.1389 0.0
3.4286 -1.1389 0.0
3.8571 -1.1389 0.0
4.2857 -1.1389 0.0
4.7143 -1.1389 0.0
5.1429 -1.1389 0.0
5.5714 -1.1389 0.0
6 -1.1389 0.0
6.7775 -1.1389 0.0
7.5549 -1.1389 0.0
8.5339 -1.1389 0.0
9.5128 -1.1389 0.0
10.7455 -1.1389 0.0
11.9781 -1.1389 0.0
13.5302 -1.1389 0.0
15.0823 -1.1389 0.0
17.0367 -1.1389 0.0
18.991 -1.1389 0.0
21.4518 -1.1389 0.0
23.9126 -1.1389 0.0
27.0111 -1.1389 0.0
30.1097 -1.1389 0.0
34.0112 -1.1389 0.0
37.9127 -1.1389 0.0
42.8254 -1.1389 0.0
47.738 -1.1389 0.0
53.9238 -1.1389 0.0
60.1096 -1.1389 0.0
67.8984 -1.1389 0.0
75.6873 -1.1389 0.0
85.4946 -1.1389 0.0
95.302 -1.1389 0.0
107.651 -1.1389 0.0
120 -1.1389 0.0
0 -1.2528 0.0
0.8571 -1.2528 0.0
1.7143 -1.2528 0.0
2.5714 -1.2528 0.0
3.4286 -1.2528 0.0
4.2857 -1.2528 0.0
5.1429 -1.2528 0.0
6 -1.2528 0.0
7.5549 -1.2528 0.0
9.5128 -1.2528 0.0
11.9781 -1.2528 0.0
15.0823 -1.2528 0.0
18.991 -1.2528 0.0
23.9126 -1.2528 0.0
30.1097 -1.2528 0.0
37.9127 -1.2528 0.0
47.738 -1.2528 0.0
60.1096 -1.2528 0.0
75.6873 -1.2528 0.0
95.302 -1.2528 0.0
120 -1.2528 0.0
0 -1.3667 0.0
0.4286 -1.3667 0.0
0.8571 -1.3667 0.0
1.2857 -1.3667 0.0
1.7143 -1.3667 0.0
2.1429 -1.3667 0.0
2.5714 -1.3667 0.0
3 -1.3667 0.0
3.4286 -1.3667 0.0
3.8571 -1.3667 0.0
4.2857 -1.3667 0.0
4.7143 -1.3667 0.0
5.1429 -1.3667 0.0
5.5714 -1.3667 0.0
6 -1.3667 0.0
6.7775 -1.3667 0.0
7.5549 -1.3667 0.0
8.5339 -1.3667 0.0
9.5128 -1.3667 0.0
10.7455 -1.3667 0.0
11.9781 -1.3667 0.0
13.5302 -1.3667 0.0
15.0823 -1.3667 0.0
17.0367 -1.3667 0.0
18.991 -1.3667 0.0
21.4518 -1.3667 0.0
23.9126 -1.3667 0.0
27.0111 -1.3667 0.0
30.1097 -1.3667 0.0
34.0112 -1.3667 0.0
37.9127 -1.3667 0.0
42.8254 -1.3667 0.0
47.738 -1.3667 0.0
53.9238 -1.3667 0.0
60.1096 -1.3667 0.0
67.8984 -1.3667 0.0
75.6873 -1.3667 0.0
85.4946 -1.3667 0.0
95.302 -1.3667 0.0
107.651 -1.3667 0.0
120 -1.3667 0.0
0 -1.4806 0.0
0.8571 -1.4806 0.0
1.7143 -1.4806 0.0
2.5714 -1.4806 0.0
3.4286 -1.4806 0.0
4.2857 -1.4806 0.0
5.1429 -1.4806 0.0
6 -1.4806 0.0
7.5549 -1.4806 0.0
9.5128 -1.4806 0.0
11.9781 -1.4806 0.0
15.0823 -1.4806 0.0
18.991 -1.4806 0.0
23.9126 -1.4806 0.0
30.1097 -1.4806 0.0
37.9127 -1.4806 0.0
47.738 -1.4806 0.0
60.1096 -1.4806 0.0
75.6873 -1.4806 0.0
95.302 -1.4806 0.0
120 -1.4806 0.0
0 -1.5945 0.0
0.4286 -1.5945 0.0
0.8571 -1.5945 0.0
1.2857 -1.5945 0.0
1.7143 -1.5945 0.0
2.1429 -1.5945 0.0
2.5714 -1.5945 0.0
3 -1.5945 0.0
3.4286 -1.5945 0.0
3.8571 -1.5945 0.0
4.2857 -1.5945 0.0
4.7143 -1.5945 0.0
5.1429 -1.5945 0.0
5.5714 -1.5945 0.0
6 -1.5945 0.0
6.7775 -1.5945 0.0
7.5549 -1.5945 0.0
8.5339 -1.5945 0.0
9.5128 -1.5945 0.0
10.7455 -1.5945 0.0
11.9781 -1.5945 0.0
13.5302 -1.5945 0.0
15.0823 -1.5945 0.0
17.0367 -1.5945 0.0
18.991 -1.5945 0.0
21.4518 -1.5945 0.0
23.9126 -1.5945 0.0
27.0111 -1.5945 0.0
30.1097 -1.5945 0.0
34.0112 -1.5945 0.0
37.9127 -1.5945 0.0
42.8254 -1.5945 0.0
47.738 -1.5945 0.0
53.9238 -1.5945 0.0
60.1096 -1.5945 0.0
67.8984 -1.5945 0.0
75.6873 -1.5945 0.0
85.4946 -1.5945 0.0
95.302 -1.5945 0.0
107.651 -1.5945 0.0
120 -1.5945 0.0
0 -1.7084 0.0
0.8571 -1.7084 0.0
1.7143 -1.7084 0.0
2.5714 -1.7084 0.0
3.4286 -1.7084 0.0
4.2857 -1.7084 0.0
5.1429 -1.7084 0.0
6 -1.7084 0.0
7.5549 -1.7084 0.0
9.5128 -1.7084 0.0
11.9781 -1.7084 0.0
15.0823 -1.7084 0.0
18.991 -1.7084 0.0
23.9126 -1.7084 0.0
30.1097 -1.7084 0.0
37.9127 -1.7084 0.0
47.738 -1.7084 0.0
60.1096 -1.7084 0.0
75.6873 -1.7084 0.0
95.302 -1.7084 0.0
120 -1.7084 0.0
0 -1.8223 0.0
0.4286 -1.8223 0.0
0.8571 -1.8223 0.0
1.2857 -1.8223 0.0
1.7143 -1.8223 0.0
2.1429 -1.8223 0.0
2.5714 -1.8223 0.0
3 -1.8223 0.0
3.4286 -1.8223 0.0
3.8571 -1.8223 0.0
4.2857 -1.8223 0.0
4.7143 -1.8223 0.0
5.1429 -1.8223 0.0
5.5714 -1.8223 0.0
6 -1.8223 0.0
6.7775 -1.8223 0.0
7.5549 -1.8223 0.0
8.5339 -1.8223 0.0
9.5128 -1.8223 0.0
10.7455 -1.8223 0.0
11.9781 -1.8223 0.0
13.5302 -1.8223 0.0
15.0823 -1.8223 0.0
17.0367 -1.8223 0.0
18.991 -1.8223 0.0
21.4518 -1.8223 0.0
23.9126 -1.8223 0.0
27.0111 -1.8223 0.0
30.1097 -1.8223 0.0
34.0112 -1.8223 0.0
37.9127 -1.8223 0.0
42.8254 -1.8223 0.0
47.738 -1.8223 0.0
53.9238 -1.8223 0.0
60.1096 -1.8223 0.0
67.8984 -1.8223 0.0
75.6873 -1.8223 0.0
85.4946 -1.8223 0.0
95.302 -1.8223 0.0
107.651 -1.8223 0.0
120 -1.8223 0.0
[...]
POINT_DATA 3327
SCALARS Displacement_R double 1
LOOKUP_TABLE default
0
-0.000108097
-0.000215763
-0.000322747
-0.000428595
-0.000533009
-0.000635491
-0.00073588
-0.000833784
-0.000929075
-0.00102093
-0.00110948
-0.00119448
-0.00128064
-0.001344
-0.00137262
-0.00137824
-0.00139848
-0.00141257
-0.00143114
-0.00144702
-0.00147027
-0.00149285
-0.00152389
-0.00155266
-0.00158687
-0.00161525
-0.00164446
-0.00166614
-0.00168687
-0.00170228
-0.0017203
-0.00173828
-0.00176766
-0.00180314
-0.00186235
-0.00193112
-0.00202548
-0.00212308
-0.00218975
-0.00218584
0
-0.000204136
-0.00040522
-0.000600057
-0.000785566
-0.000957949
-0.00111271
-0.00122147
-0.00131219
-0.0013602
-0.00140401
-0.0014552
-0.0015178
-0.00158162
-0.00163305
-0.00166928
-0.0017047
-0.00176779
-0.00189224
-0.00207893
-0.00213907
0
-9.65663e-05
-0.000192694
-0.000288066
-0.000382211
-0.000474738
-0.000565204
-0.00065316
-0.000738032
-0.000819197
-0.000896339
-0.000967214
-0.00103172
-0.00107488
-0.00111476
-0.0011961
-0.00124472
-0.00128034
-0.00130886
-0.00133683
-0.00136117
-0.00139019
-0.00141774
-0.0014518
-0.00148308
-0.00151862
-0.0015481
-0.00157786
-0.00160002
-0.00162084
-0.00163632
-0.00165375
-0.00167113
-0.00169878
-0.00173245
-0.00178829
-0.00185337
-0.00194297
-0.0020348
-0.0020983
-0.00209234
0
-0.000181439
-0.000359587
-0.000530923
-0.000691351
-0.000835667
-0.000951991
-0.00102269
-0.00117823
-0.00125719
-0.00131846
-0.00138033
-0.00144843
-0.00151466
-0.00156705
-0.00160338
-0.00163756
-0.00169711
-0.00181451
-0.00199071
-0.0020457
0
-8.54233e-05
-0.000170378
-0.000254532
-0.000337368
-0.000418464
-0.000497257
-0.000573255
-0.000645659
-0.000713748
-0.000776138
-0.000831786
-0.000876302
-0.000904873
-0.000940063
-0.00103678
-0.00111243
-0.0011663
-0.00120618
-0.00124442
-0.00127602
-0.00131115
-0.0013431
-0.00138041
-0.00141392
-0.00145089
-0.00148132
-0.00151162
-0.00153415
-0.00155504
-0.00157048
-0.00158733
-0.001604
-0.00162996
-0.00166176
-0.00171424
-0.00177566
-0.00186046
-0.00194664
-0.0020069
-0.00199909
0
-0.000159523
-0.00031557
-0.000464292
-0.00060099
-0.000718894
-0.000804757
-0.000864533
-0.00104802
-0.00115577
-0.00123387
-0.00130602
-0.00137952
-0.00144807
-0.00150131
-0.00153761
-0.00157046
-0.00162642
-0.00173682
-0.00190262
-0.00195257
0
-7.46809e-05
-0.000148875
-0.00022223
-0.000294206
-0.000364339
-0.00043201
-0.000496651
-0.000557445
-0.000613389
-0.000663223
-0.000705398
-0.00073749
-0.000761206
-0.000795316
-0.000894964
-0.000985185
-0.00105578
-0.00110588
-0.00115368
-0.00119201
-0.00123304
-0.00126911
-0.00130966
-0.00134525
-0.00138364
-0.00141492
-0.00144573
-0.00146854
-0.00148944
-0.00150477
-0.00152103
-0.00153692
-0.00156119
-0.00159108
-0.00164021
-0.00169798
-0.00177795
-0.00185861
-0.00191555
-0.00190608
0
-0.000138442
-0.000273289
-0.000400478
-0.00051502
-0.000609685
-0.000674225
-0.00073065
-0.000924273
-0.00105682
-0.00115047
-0.00123238
-0.00131111
-0.00138187
-0.00143583
-0.00147197
-0.0015034
-0.00155574
-0.00165916
-0.00181465
-0.00185967
0
-6.43597e-05
-0.000128225
-0.000191233
-0.000252827
-0.000312527
-0.000369686
-0.000423724
-0.000473781
-0.000518935
-0.000558061
-0.000589949
-0.000614744
-0.000636978
-0.000670529
-0.000768253
-0.000865226
-0.000948911
-0.00100827
-0.00106464
-0.00110924
-0.00115586
-0.00119583
-0.00123953
-0.0012771
-0.00131686
-0.00134891
-0.00138016
-0.00140318
-0.00142406
-0.0014392
-0.00145483
-0.00146989
-0.00149246
-0.0015204
-0.0015662
-0.00162034
-0.00169544
-0.00177069
-0.00182425
-0.00181329
0
-0.000118232
-0.000232834
-0.000339687
-0.000433799
-0.000508536
-0.000558718
-0.000613752
-0.000808227
-0.000960555
-0.00106833
-0.00115947
-0.00124322
-0.00131605
-0.00137059
-0.00140646
-0.00143639
-0.00148506
-0.00158153
-0.00172677
-0.00176697
0
-5.44785e-05
-0.000108468
-0.000161602
-0.000213327
-0.000263167
-0.00031049
-0.000354721
-0.000395073
-0.000430778
-0.000461079
-0.000485482
-0.000505923
-0.000527626
-0.000560459
-0.000654226
-0.000753169
-0.000846058
-0.000913425
-0.000977391
-0.00102776
-0.00107964
-0.00112332
-0.00117005
-0.0012095
-0.00125057
-0.00128332
-0.00131495
-0.0013381
-0.00135889
-0.00137378
-0.00138876
-0.00140293
-0.00142381
-0.00144976
-0.00149223
-0.00154275
-0.00161297
-0.0016829
-0.00173304
-0.00172072
0
-9.89234e-05
-0.000194284
-0.000282075
-0.000357605
-0.000415582
-0.000455961
-0.000509747
-0.000700009
-0.000867052
-0.000987491
-0.00108733
-0.00117588
-0.00125065
-0.00130564
-0.00134111
-0.00136946
-0.00141443
-0.00150395
-0.00163903
-0.0016745
0
-4.50363e-05
-8.96018e-05
-0.000133338
-0.000175715
-0.00021628
-0.000254448
-0.000289691
-0.000321365
-0.00034891
-0.000372054
-0.000391018
-0.000408643
-0.000429895
-0.000461718
-0.000550655
-0.000648641
-0.000747327
-0.000821256
-0.000891898
-0.000947531
-0.00100435
-0.00105152
-0.00110115
-0.00114239
-0.00118469
-0.00121807
-0.00125002
-0.00127324
-0.00129389
-0.00130847
-0.00132276
-0.001336
-0.00135518
-0.0013791
-0.00141825
-0.00146515
-0.00153047
-0.00159516
-0.00164185
-0.0016283
0
-8.05077e-05
-0.000157629
-0.000227626
-0.00028639
-0.000330374
-0.000363708
-0.000415825
-0.000599035
-0.000776223
-0.000907907
-0.0010159
-0.00110903
-0.00118558
-0.0012409
-0.00127587
-0.00130255
-0.00134377
-0.00142636
-0.00155132
-0.00158215
0
-3.6037e-05
-7.16349e-05
-0.000106456
-0.000140011
-0.000171891
-0.000201583
-0.000228643
-0.000252612
-0.000273168
-0.000290506
-0.000305395
-0.000320957
-0.000341549
-0.000372068
-0.000455814
-0.000551061
-0.000652784
-0.00073179
-0.000808201
-0.000868593
-0.000930005
-0.000980475
-0.00103287
-0.00107579
-0.00111925
-0.00115319
-0.00118539
-0.00120862
-0.00122907
-0.00124329
-0.00125686
-0.00126912
-0.00128658
-0.00130845
-0.00134428
-0.00138757
-0.00144799
-0.0015075
-0.00155071
-0.00153603
0
-6.29851e-05
-0.000122867
-0.000176321
-0.00022003
-0.000252294
-0.000280171
-0.000330073
-0.000504636
-0.000688086
-0.00082962
-0.000945244
-0.00104269
-0.00112089
-0.00117639
-0.00121075
-0.00123569
-0.00127313
-0.00134879
-0.00146369
-0.00148995
0
-2.74724e-05
-5.45503e-05
-8.09278e-05
-0.000106177
-0.000129941
-0.000151809
-0.00017144
-0.000188578
-0.000203137
-0.000215691
-0.00022736
-0.000241181
-0.000260833
-0.000289794
-0.000368222
-0.000459662
-0.000562301
-0.00064499
-0.000726287
-0.000790955
-0.000856624
-0.000910197
-0.0009652
-0.00100971
-0.00105425
-0.00108868
-0.00112106
-0.00114423
-0.00116443
-0.00117824
-0.00119105
-0.00120229
-0.00121802
-0.00123781
-0.00127032
-0.00131001
-0.00136551
-0.00141989
-0.00145962
-0.00144389
0
-4.63298e-05
-8.99388e-05
-0.000128036
-0.000158222
-0.000180534
-0.000203805
-0.000250971
-0.000416027
-0.000602585
-0.000752632
-0.000875348
-0.000976866
-0.00105655
-0.00111212
-0.00114577
-0.00116889
-0.0012025
-0.00127123
-0.00137612
-0.00139788
0
-1.93261e-05
-3.8314e-05
-5.67007e-05
-7.41319e-05
-9.03203e-05
-0.000104965
-0.000117845
-0.0001289
-0.000138261
-0.000146767
-0.000155721
-0.000167897
-0.000186335
-0.000213529
-0.000286628
-0.000373657
-0.000475639
-0.00056078
-0.000646128
-0.000714614
-0.000784206
-0.000840685
-0.000898142
-0.000944143
-0.000989658
-0.00102451
-0.00105701
-0.00108007
-0.00109996
-0.00111332
-0.00112532
-0.00113551
-0.0011495
-0.00116719
-0.00119638
-0.00123246
-0.00128305
-0.00133235
-0.00136859
-0.00135189
0
-3.04998e-05
-5.87474e-05
-8.25752e-05
-0.000100557
-0.000114234
-0.000133301
-0.000177283
-0.000332427
-0.000519624
-0.000676935
-0.000806219
-0.000911549
-0.00099256
-0.00104808
-0.0010809
-0.00110215
-0.00113188
-0.00119369
-0.0012886
-0.00130593
0
-1.15739e-05
-2.28764e-05
-3.36955e-05
-4.37619e-05
-5.28655e-05
-6.08257e-05
-6.75403e-05
-7.31324e-05
-7.79081e-05
-8.28706e-05
-8.93843e-05
-9.98909e-05
-0.000116876
-0.000142139
-0.000209964
-0.00029228
-0.000392485
-0.000479049
-0.000567683
-0.000639557
-0.00071275
-0.000771939
-0.000831694
-0.000879077
-0.000925483
-0.000960691
-0.000993228
-0.00101613
-0.00103566
-0.00104852
-0.00105968
-0.00106879
-0.00108101
-0.00109658
-0.00112245
-0.00115492
-0.0012006
-0.00124486
-0.0012776
-0.00125999
0
-1.54382e-05
-2.91611e-05
-3.96857e-05
-4.65558e-05
-5.25339e-05
-6.75305e-05
-0.000107961
-0.000253088
-0.000439074
-0.000602513
-0.000737857
-0.000846733
-0.000928908
-0.000984245
-0.00101616
-0.00103546
-0.00106128
-0.00111615
-0.00120113
-0.00121408
0
-4.18524e-06
-8.17355e-06
-1.18107e-05
-1.49202e-05
-1.73742e-05
-1.91136e-05
-2.01523e-05
-2.0769e-05
-2.14086e-05
-2.31538e-05
-2.73525e-05
-3.61063e-05
-5.14356e-05
-7.46431e-05
-0.000137296
-0.000214804
-0.000312484
-0.000399648
-0.000490898
-0.000565765
-0.000642255
-0.00070396
-0.000765852
-0.00081451
-0.000861713
-0.000897205
-0.000929717
-0.000952408
-0.000971516
-0.000983833
-0.000994123
-0.00100213
-0.00101256
-0.00102598
-0.00104853
-0.00107739
-0.00111817
-0.00115741
-0.00118667
-0.00116819
0
-1.07467e-06
-1.02001e-06
9.29394e-07
4.30566e-06
5.39824e-06
-5.49888e-06
-4.20844e-05
-0.000177305
-0.000360769
-0.000529342
-0.00067026
-0.000782414
-0.000865586
-0.000920624
-0.000951536
-0.000968816
-0.00099069
-0.00103862
-0.0011137
-0.00112233
0
2.87671e-06
5.87043e-06
9.0733e-06
1.2565e-05
1.63887e-05
2.04856e-05
2.47338e-05
2.87261e-05
3.19148e-05
3.31964e-05
3.12857e-05
2.43963e-05
1.08905e-05
-1.01724e-05
-6.77917e-05
-0.000140548
-0.000235251
-0.000322402
-0.000415705
-0.000493212
-0.000572713
-0.000636746
-0.000700613
-0.000750436
-0.000798338
-0.000834044
-0.000866464
-0.000888889
-0.000907526
-0.000919266
-0.000928643
-0.000935516
-0.000944139
-0.000955403
-0.000974626
-0.000999863
-0.00103576
-0.00107
-0.00109578
-0.00107648
0
1.26715e-05
2.5858e-05
3.95992e-05
5.25728e-05
6.03562e-05
5.3687e-05
2.11729e-05
-0.000104416
-0.000284524
-0.000457396
-0.000603426
-0.000718583
-0.000802584
-0.000857204
-0.000887025
-0.00090223
-0.00092012
-0.000961104
-0.00102631
-0.00103064
0
9.65314e-06
1.93407e-05
2.90904e-05
3.88845e-05
4.86819e-05
5.83124e-05
6.75564e-05
7.59031e-05
8.27315e-05
8.69542e-05
8.73706e-05
8.24712e-05
7.09274e-05
5.20673e-05
-6.9366e-07
-6.88687e-05
-0.000160393
-0.000247113
-0.000342028
-0.000421868
-0.000504116
-0.000570292
-0.000635973
-0.000686848
-0.00073535
-0.000771199
-0.00080346
-0.000825568
-0.000843684
-0.000854811
-0.000863239
-0.000868955
-0.000875748
-0.000884842
-0.000900733
-0.000922346
-0.000953358
-0.000982619
-0.00100493
-0.000984828
0
2.58891e-05
5.16709e-05
7.66729e-05
9.87976e-05
0.000113095
0.000110848
8.25759e-05
-3.37971e-05
-0.000210133
-0.000386641
-0.000537352
-0.000655237
-0.000739893
-0.00079398
-0.000822625
-0.000835695
-0.000849567
-0.000883589
-0.000938937
-0.000939024
0
1.61885e-05
3.23287e-05
4.83843e-05
6.42418e-05
7.97787e-05
9.4722e-05
0.000108765
0.000121313
0.000131694
0.000138856
0.000141688
0.000138911
0.000129445
0.000112818
6.47034e-05
8.40225e-07
-8.75167e-05
-0.000173573
-0.000269783
-0.000351698
-0.000436455
-0.000504596
-0.000571927
-0.000623741
-0.000672739
-0.000708661
-0.000740695
-0.000762438
-0.000779984
-0.000790464
-0.000797908
-0.000802447
-0.000807386
-0.000814297
-0.000826851
-0.000844833
-0.000870977
-0.000895261
-0.000914126
-0.000893233
0
3.86662e-05
7.66151e-05
0.000112494
0.000143509
0.000164311
0.00016673
0.000142823
3.51147e-05
-0.000137416
-0.000317074
-0.000472061
-0.000592394
-0.000677532
-0.000730971
-0.00075836
-0.000769242
-0.000779063
-0.000806111
-0.000851626
-0.000847492
0
2.25261e-05
4.49239e-05
6.70953e-05
8.88359e-05
0.000109946
0.000130059
0.000148791
0.000165481
0.000179416
0.000189585
0.000194958
0.000194445
0.000187155
0.000172766
0.000129042
6.91299e-05
-1.62625e-05
-0.000101597
-0.000198912
-0.000282698
-0.000369748
-0.000439681
-0.000508496
-0.000561134
-0.000610523
-0.000646447
-0.000678188
-0.00069952
-0.000716449
-0.000726252
-0.000732675
-0.000736018
-0.000739082
-0.000743801
-0.000753012
-0.000767356
-0.000788651
-0.000807958
-0.000823402
-0.000801721
0
5.11095e-05
0.000100923
0.000147453
0.000187285
0.000214741
0.000222121
0.00020267
0.00010295
-6.60906e-05
-0.000248599
-0.000407493
-0.000529995
-0.000615437
-0.000668116
-0.00069417
-0.00070281
-0.000708545
-0.0007286
-0.00076429
-0.000755954
0
2.87178e-05
5.72327e-05
8.53888e-05
0.000112898
0.000139489
0.000164713
0.000188114
0.000208975
0.00022655
0.000239861
0.000247944
0.000249851
0.000244829
0.000232663
0.000193029
0.000136621
5.38119e-05
-3.09073e-05
-0.000129263
-0.000214773
-0.000303921
-0.000375487
-0.000445618
-0.000498968
-0.000548638
-0.000584495
-0.000615874
-0.000636752
-0.000653016
-0.000662113
-0.000667479
-0.000669612
-0.000670773
-0.000673292
-0.000679152
-0.000689845
-0.000706308
-0.000720627
-0.000732675
-0.000710197
0
6.33075e-05
0.000124791
0.000181888
0.000230626
0.000265028
0.00027772
0.000262791
0.000170233
4.01968e-06
-0.000181214
-0.000343673
-0.000468062
-0.000553626
-0.000605434
-0.000630082
-0.000636429
-0.000638045
-0.000651088
-0.000676961
-0.000664438
0
3.48057e-05
6.9342e-05
0.000103401
0.00013662
0.000168665
0.000199012
0.000227144
0.00025229
0.000273669
0.000290323
0.000301322
0.000305827
0.000303169
0.00029319
0.00025728
0.000203832
0.000123043
3.8669e-05
-6.07744e-05
-0.000147923
-0.000238987
-0.00031204
-0.000383311
-0.000437265
-0.0004871
-0.000522824
-0.000553772
-0.000574156
-0.000589706
-0.000598074
-0.000602346
-0.000603256
-0.000602489
-0.000602802
-0.000605301
-0.000612332
-0.000623984
-0.000633299
-0.000641984
-0.000618687
0
7.53507e-05
0.000148417
0.000216136
0.000274036
0.00031582
0.000334244
0.000323905
0.000237511
7.31062e-05
-0.000114901
-0.000280607
-0.000406592
-0.000492094
-0.000542923
-0.000566093
-0.000570098
-0.000567564
-0.000573572
-0.000589632
-0.000572931
0
4.08312e-05
8.13394e-05
0.000121267
0.000160196
0.00019773
0.000233287
0.000266289
0.000295916
0.000321346
0.000341607
0.000355796
0.000363082
0.00036293
0.000355085
0.000322438
0.000271311
0.000191788
0.000107307
6.65175e-06
-8.21412e-05
-0.000174924
-0.000249353
-0.000321563
-0.000376026
-0.000425895
-0.000461428
-0.00049187
-0.000511727
-0.000526513
-0.000534133
-0.000537272
-0.000536951
-0.000534227
-0.00053233
-0.00053146
-0.000534814
-0.000541683
-0.000545969
-0.000551326
-0.000527179
0
8.73194e-05
0.000171983
0.000250512
0.000317999
0.000367768
0.000392456
0.000386842
0.000305344
0.000141304
-4.96855e-05
-0.000218323
-0.000345595
-0.000430839
-0.000480576
-0.000502201
-0.00050382
-0.000497102
-0.00049605
-0.000502296
-0.000481418
0
4.68345e-05
9.32973e-05
0.000139111
0.000183792
0.000226917
0.000267836
0.000305929
0.000340328
0.00037013
0.000394379
0.000412048
0.000422439
0.000424826
0.000419276
0.000389112
0.000339634
0.0002604
0.0001751
7.31449e-05
-1.74873e-05
-0.00011168
-0.000187471
-0.000260345
-0.000315268
-0.000365007
-0.000400309
-0.000430156
-0.000449462
-0.000463429
-0.00047029
-0.000472252
-0.000470698
-0.000465985
-0.000461878
-0.00045763
-0.000457288
-0.000459403
-0.000458628
-0.000460699
-0.000435659
0
9.51685e-05
0.000187104
0.000271885
0.000344519
0.000398862
0.000428755
0.000430283
0.000366579
0.000222887
4.56712e-05
-0.000115191
-0.000236466
-0.000315352
-0.000358372
-0.000373337
-0.000367616
-0.000350864
-0.000334983
-0.000321945
-0.000294125
0
4.83696e-05
9.62601e-05
0.000143332
0.000189
0.000232838
0.00027416
0.00031246
0.00034695
0.000377017
0.000401922
0.00042107
0.000433993
0.000440361
0.000440251
0.000424003
0.000391091
0.000333471
0.000267149
0.000183434
0.000106011
2.29688e-05
-4.45907e-05
-0.000110029
-0.00015857
-0.000201702
-0.000230899
-0.000254188
-0.000267592
-0.000275337
-0.000276577
-0.000272364
-0.000264641
-0.00025236
-0.000239916
-0.000224684
-0.000212713
-0.00019982
-0.000185354
-0.000177173
-0.00015254
0
9.67933e-05
0.000189895
0.000275215
0.000348212
0.000404045
0.000438512
0.000449355
0.000413814
0.00030868
0.000163813
2.432e-05
-8.16113e-05
-0.00014694
-0.000177086
-0.000179974
-0.000161746
-0.000128978
-9.03945e-05
-4.86758e-05
-1.06639e-05
0
4.87127e-05
9.69125e-05
0.00014422
0.000190063
0.00023399
0.00027541
0.00031384
0.000348686
0.000379429
0.000405591
0.000426729
0.000442587
0.000452967
0.000457944
0.000453679
0.000435014
0.000396243
0.000347669
0.000282398
0.000219314
0.000149547
9.17787e-05
3.56945e-05
-5.42165e-06
-4.07979e-05
-6.33764e-05
-7.95284e-05
-8.68056e-05
-8.79935e-05
-8.35027e-05
-7.28569e-05
-5.89153e-05
-3.88693e-05
-1.80699e-05
8.22338e-06
3.19264e-05
5.9694e-05
8.7965e-05
0.00010639
0.000131352
0
9.67655e-05
0.000189775
0.000275092
0.000348729
0.000406849
0.000446461
0.000466154
0.000455073
0.000384699
0.00027283
0.000157838
6.99733e-05
1.97667e-05
3.23285e-06
1.2812e-05
4.3809e-05
9.27758e-05
0.000154222
0.000224603
0.000273595
0
4.84801e-05
9.64538e-05
0.000143547
0.000189219
0.000233046
0.000274506
0.000313185
0.000348602
0.000380347
0.000408071
0.000431458
0.000450336
0.000464576
0.000474256
0.000480558
0.00047428
0.000452242
0.000419985
0.000372762
0.000324557
0.000269338
0.000222701
0.000177392
0.000144751
0.000118035
0.000102626
9.4045e-05
9.31315e-05
9.87175e-05
0.000109055
0.00012629
0.000146512
0.000174451
0.000203628
0.000241047
0.000276559
0.000319118
0.000361256
0.00039008
0.00041607
0
9.60758e-05
0.000188573
0.000273872
0.000348527
0.000409442
0.000454382
0.000482368
0.000492908
0.000453986
0.000374812
0.00028646
0.000218909
0.000185188
0.00018288
0.000205209
0.00024916
0.000314458
0.000398903
0.000497938
0.000558842
0
4.80849e-05
9.5696e-05
0.000142483
0.000187956
0.000231725
0.000273345
0.000312455
0.000348667
0.000381644
0.000411125
0.000436865
0.000458743
0.000476662
0.000490686
0.000506461
0.000511173
0.000504119
0.000486862
0.000456966
0.000423723
0.000383787
0.000349246
0.000315832
0.000292553
0.000275268
0.000267515
0.000266857
0.000272501
0.000285004
0.000301272
0.000325193
0.000351745
0.000387662
0.000425238
0.000473837
0.000521226
0.000578534
0.000634572
0.00067409
0.000701821
0
9.5375e-05
0.000187475
0.000273057
0.000349161
0.000413243
0.000463545
0.000499314
0.000529289
0.000518996
0.000471628
0.000411229
0.000365763
0.000349669
0.000362061
0.000397313
0.000454324
0.000536034
0.00064359
0.000771273
0.000845184
0
4.7792e-05
9.51543e-05
0.000141771
0.000187206
0.000231113
0.000273108
0.000312882
0.000350115
0.000384524
0.000415906
0.000444061
0.000468893
0.000490324
0.0005084
0.000532811
0.000547436
0.00055396
0.000550535
0.000537134
0.000518646
0.000494334
0.000472526
0.000451844
0.000438636
0.000431412
0.00043171
0.000439246
0.000451579
0.00047108
0.000493321
0.000523971
0.000556883
0.000600827
0.000646816
0.000706639
0.000765971
0.000838023
0.000907973
0.000958602
0.00098885
0
9.50709e-05
0.000187216
0.000273578
0.000351615
0.000419195
0.000474878
0.000518025
0.000565768
0.00058176
0.000565045
0.000533273
0.000511209
0.000513639
0.000541054
0.000589291
0.000659396
0.000757562
0.000888327
0.00104467
0.00113288
0
4.77665e-05
9.51506e-05
0.000141874
0.000187553
0.000231883
0.000274533
0.00031524
0.000353734
0.000389772
0.000423193
0.000453824
0.000481586
0.000506405
0.000528314
0.000560734
0.000584452
0.000603431
0.000612836
0.000615087
0.000610978
0.000602343
0.000593629
0.000586251
0.000583635
0.000586945
0.000595582
0.000611487
0.000630574
0.000657082
0.000685289
0.000722662
0.000761933
0.00081392
0.000868328
0.000939404
0.00101074
0.00109756
0.00118141
0.00124367
0.00127731
0
9.54158e-05
0.000188256
0.000276023
0.000356528
0.000427956
0.000489087
0.000539336
0.00060361
0.000643987
0.000656686
0.000653737
0.000655963
0.000677547
0.000720141
0.000781311
0.000864471
0.000979098
0.00113316
0.00131819
0.00142223
0
4.81103e-05
9.58836e-05
0.000143078
0.000189358
0.000234458
0.000278091
0.000320032
0.000360049
0.000397933
0.000433548
0.000466744
0.000497449
0.000525591
0.00055119
0.000591178
0.000623379
0.000653941
0.000675347
0.000692463
0.000702281
0.000709178
0.000713701
0.000719964
0.000728281
0.000742437
0.000759589
0.000783939
0.000809767
0.000843227
0.000877342
0.000921387
0.00096699
0.00102701
0.00108983
0.00117218
0.00125558
0.00135721
0.00145495
0.00152946
0.00156753
0
9.65682e-05
0.000190885
0.000280772
0.000364339
0.000440016
0.000506738
0.000563947
0.000643878
0.000707127
0.000748017
0.000773719
0.000800713