 TITLE = "EXAMPLE GRID (12 elements, linear run)                                          "
 VARIABLES = "R","Z","DISP_R","DISP_Z","EPSR","EPSTH","EPSZ","EPSRZ","SIGMAR","SIGMATH","SIGMAZ","SIGMARZ"
 ZONE T="GEOMETRY & DISP", N=   84, E=   12, F=FEPOINT, ET=QUADRILATERAL
 0.0000000E+00 0.0000000E+00 0.0000000E+00 0.0000000E+00 0.0000000E+00 0.0000000E+00 -.2248218E-01 0.0000000E+00 -192.7044     -192.7044     -289.0566     0.0000000E+00
  2.500000     0.0000000E+00 0.0000000E+00 0.0000000E+00 0.0000000E+00 0.0000000E+00 -.1916254E-01 0.1591333E-01 -164.2503     -164.2503     -246.3755      34.10000    
  5.000000     0.0000000E+00 0.0000000E+00 0.0000000E+00 0.0000000E+00 0.0000000E+00 -.1530126E-01 0.3219492E-01 -131.1536     -131.1536     -196.7305      68.98912    
  7.500000     0.0000000E+00 0.0000000E+00 0.0000000E+00 0.0000000E+00 0.0000000E+00 -.1077611E-01 0.4373705E-01 -92.36664     -92.36664     -138.5500      93.72226    
  10.00000     0.0000000E+00 0.0000000E+00 0.0000000E+00 0.0000000E+00 0.0000000E+00 -.4400079E-02 0.5592636E-01 -37.71497     -37.71497     -56.57245      119.8422    
  12.50000     0.0000000E+00 0.0000000E+00 0.0000000E+00 0.0000000E+00 0.0000000E+00 -.1392551E-01 0.6962412E-01 -119.3615     -119.3615     -179.0423      149.1946    
  15.00000     0.0000000E+00 0.0000000E+00 0.0000000E+00 0.0000000E+00 0.0000000E+00 -.2743005E-01 0.8260443E-01 -235.1147     -235.1147     -352.6721      177.0095    
 0.0000000E+00  3.445655     0.0000000E+00 -.1554345     0.2093737E-01 0.2093737E-01 -.3969161E-01 0.3085665E-02  108.4440      108.4440     -151.3945      6.612139    
  6.083694      3.654102     0.1083694     -.1345898     0.2063500E-01 0.2167389E-01 -.3853465E-01 0.1620256E-01  120.7863      125.2387     -132.7979      34.71977    
  12.09139      4.081550     0.2091391     -.9184499E-01 0.2185432E-01 0.2091391E-01 -.3233792E-01 0.3268062E-01  183.0641      179.0338     -49.18839      70.02991    
  18.13266      3.566236     0.3132663     -.1433764     0.1939051E-01 0.2088442E-01 -.2992051E-01 0.2443758E-01  171.8543      178.2568     -39.47863      52.36624    
 0.0000000E+00  6.030839     0.0000000E+00 -.3969161     0.2083266E-01 0.2083266E-01 -.5690104E-01 0.1473675E-03 -41.30910     -41.30910     -374.4536     0.3157875    
  3.039230      6.061605     0.5392295E-01 -.3938395     0.2230570E-01 0.2156918E-01 -.5960536E-01 -.2814822E-02 -39.23682     -42.39334     -390.2843     -6.031761    
  6.115285      6.146535     0.1115285     -.3853465     0.2717147E-01 0.2230570E-01 -.6176804E-01 -.5154007E-02  11.09886     -9.754447     -370.0705     -11.04430    
  9.411749      6.363828     0.1911749     -.3636172     0.3315290E-01 0.2548998E-01 -.6194734E-01 0.6891389E-02  113.7599      80.91888     -293.8125      14.76726    
  12.77293      6.766208     0.2772930     -.3233792     0.3427850E-01 0.2772930E-01 -.6027576E-01 0.1980636E-01  161.7539      133.6859     -243.4787      42.44220    
  16.05744      7.086034     0.3557442     -.2913966     0.2994555E-01 0.2845953E-01 -.4435381E-01 0.6359533E-02  248.7777      242.4090     -69.64821      13.62757    
  19.27021      7.007949     0.4270208     -.2992051     0.2707571E-01 0.2846805E-01 -.3241097E-01 -.8281895E-02  314.3199      320.2870      59.37694     -17.74692    
 0.0000000E+00  6.030827     0.0000000E+00 -.3969173     0.2051115E-01 0.2051115E-01 -.8509555E-02 0.1316541E-03 0.0000000E+00 0.0000000E+00 -266.0291     0.0000000E+00
  3.031782      6.061347     0.5317823E-01 -.3938653     0.2203144E-01 0.2127129E-01 -.8438837E-02 0.3844657E-03 0.0000000E+00 0.0000000E+00 -232.5369     -11.17076    
  6.101572      6.146324     0.1101572     -.3853676     0.2355174E-01 0.2203144E-01 -.6260349E-02 -.1695120E-03 0.0000000E+00 0.0000000E+00 -189.6476     -20.56952    
  6.108686      6.146204     0.1108686     -.3853796     0.2953284E-01 0.2217371E-01 -.1054551E-01 0.3070197E-03 0.0000000E+00 0.0000000E+00 -298.3344     -9.899147    
  9.382461      6.363579     0.1882461     -.3636421     0.3236921E-01 0.2509948E-01 -.7438604E-02 -.5752394E-02 0.0000000E+00 0.0000000E+00 -223.8648     -43.93115    
  12.72715      6.766237     0.2727146     -.3233763     0.3520558E-01 0.2727146E-01 -.3865236E-02 -.1216693E-01 0.0000000E+00 0.0000000E+00  26.04960     -68.67540    
  14.26499      6.93868     0.4264994     0.3386799E-01 0.2483815E-01 0.4264994E-01 -.2920094E-02 0.6979533E-02 0.0000000E+00 0.0000000E+00 0.0000000E+00 0.0000000E+00
  17.38502      7.27330     0.4885019     0.6733033E-01 0.2476382E-01 0.3908015E-01 -.6706871E-02 0.3197257E-02 0.0000000E+00 0.0000000E+00 0.0000000E+00 0.0000000E+00
  20.50319      7.21240     0.5503185     0.6123960E-01 0.2468949E-01 0.3668790E-01 0.6056943E-02 0.1231484E-01 0.0000000E+00 0.0000000E+00 0.0000000E+00 0.0000000E+00
 0.0000000E+00  7.871707     0.0000000E+00 -.4128293     0.1838817E-01 0.1838817E-01 -.7402458E-02 -.7394087E-03  60.15211      60.15211     -229.5626     -9.824301    
  5.963152      8.027962     0.9631519E-01 -.3972038     0.2013790E-01 0.1926304E-01 -.5575896E-02 -.2194637E-02 0.0000000E+00 0.0000000E+00 -153.0164     0.0000000E+00
  5.969921      7.964635     0.9699210E-01 -.4035365     0.2066670E-01 0.1939842E-01 -.7611315E-02 -.2696049E-02 0.0000000E+00 0.0000000E+00 -232.2102     0.0000000E+00
  12.13087      8.678762     0.2130870     -.3321238     0.2577125E-01 0.2130870E-01 -.4882245E-02 -.5581723E-02 0.0000000E+00 0.0000000E+00 -112.5801     0.0000000E+00
  20.02369      8.86809     0.4023685     0.2680919E-01 0.2398736E-01 0.4023685E-01 -.4138706E-02 0.2150481E-02 0.0000000E+00 0.0000000E+00 -54.07379     0.0000000E+00
  20.73533      9.33732     0.5735331     0.7373223E-01 0.4447847E-01 0.3823554E-01 0.6435693E-02 0.7356678E-02  183.3468      165.7690      394.6761      97.74597    
 0.0000000E+00  9.734728     0.0000000E+00 -.4265272     0.1445460E-01 0.1445460E-01 -.6295362E-02 -.1779529E-02 0.0000000E+00 0.0000000E+00 -199.2561     0.0000000E+00
  2.864233      9.759624     0.3642330E-01 -.4240376     0.1468404E-01 0.1456932E-01 -.6647288E-02 -.2680780E-02 0.0000000E+00 0.0000000E+00 -188.3846     -21.91303    
  5.734202      9.923288     0.7342018E-01 -.4076712     0.1491347E-01 0.1468404E-01 -.4891443E-02 -.4388820E-02 0.0000000E+00 0.0000000E+00 -178.0744     -30.31907    
  5.740921      9.841751     0.7409211E-01 -.4158249     0.1533733E-01 0.1481842E-01 -.4677123E-02 -.7279598E-02 0.0000000E+00 0.0000000E+00 -158.7970     -43.07999    
  8.652707      10.10438     0.1152707     -.3895621     0.1760551E-01 0.1536942E-01 -.5521421E-02 -.3750739E-02 0.0000000E+00 0.0000000E+00 -162.2419     -67.98408    
  11.62120      10.57095     0.1621197     -.3429053     0.1987369E-01 0.1621197E-01 -.5899254E-02 -.5769990E-03 0.0000000E+00 0.0000000E+00 -167.4832     -73.77793    
  13.87240      10.87313     0.3872399     0.1731317E-01 0.1249254E-01 0.3872399E-01 -.5357318E-02 -.2039627E-02 0.0000000E+00 0.0000000E+00 0.0000000E+00 0.0000000E+00
  16.94178      10.98823     0.4441781     0.3882312E-01 0.3305799E-01 0.3553424E-01 -.7546733E-02 -.5951011E-02 0.0000000E+00 0.0000000E+00 0.0000000E+00 0.0000000E+00
  20.52530      11.46982     0.5525298     0.8698237E-01 0.5362343E-01 0.3683532E-01 0.6814443E-02 0.3037462E-02 0.0000000E+00 0.0000000E+00 0.0000000E+00 0.0000000E+00
 0.0000000E+00  9.734721     0.0000000E+00 -.4265279     0.1369016E-01 0.1369016E-01 -.7529939E-02 -.1791872E-02 0.0000000E+00 0.0000000E+00 -250.5769     0.0000000E+00
  2.849624      9.759415     0.3496243E-01 -.4240585     0.1427978E-01 0.1398497E-01 -.6074449E-02 -.1496214E-02 0.0000000E+00 0.0000000E+00 -188.3846     -21.91303    
  5.713989      9.923091     0.7139890E-01 -.4076909     0.1486940E-01 0.1427978E-01 -.5656779E-02 -.1652772E-02 0.0000000E+00 0.0000000E+00 -178.0744     -30.31907    
  5.712201      9.841575     0.7122011E-01 -.4158425     0.1441842E-01 0.1424402E-01 -.5698607E-02 -.4847330E-02 0.0000000E+00 0.0000000E+00 -158.7970     -43.07999    
  8.607384      10.10420     0.1107384     -.3895802     0.1719621E-01 0.1476512E-01 -.5224194E-02 -.5424200E-02 0.0000000E+00 0.0000000E+00 -162.2419     -67.98408    
  11.57201      10.57076     0.1572011     -.3429239     0.1997399E-01 0.1572011E-01 -.7476362E-02 -.7737813E-02 0.0000000E+00 0.0000000E+00 -167.4832     -73.77793    
  14.15820      10.99468     0.2158199     -.3405323     0.1144334E-01 0.2158199E-01 -.1120042E-01 -.8738977E-02 0.0000000E+00 0.0000000E+00 0.0000000E+00 0.0000000E+00
  17.20040      11.21058     0.2700395     -.3189423     0.3193236E-01 0.2160316E-01 -.3314480E-02 -.1747485E-02 0.0000000E+00 0.0000000E+00 0.0000000E+00 0.0000000E+00
  20.75482      11.69250     0.3754817     -.2707496     0.5242138E-01 0.2503211E-01 0.1126079E-02 -.5356743E-02 0.0000000E+00 0.0000000E+00 0.0000000E+00 0.0000000E+00
 0.0000000E+00  11.60417     0.0000000E+00 -.4395829     0.9533126E-02 0.9533126E-02 -.5525079E-02 -.5481405E-03  28.31476      28.31476     -185.6023     -7.282979    
  5.488049      11.81321     0.4880487E-01 -.4186786     0.9988820E-02 0.9760973E-02 -.5330868E-02 -.2704734E-02 0.0000000E+00 0.0000000E+00 -176.7754     0.0000000E+00
  5.483206      11.75159     0.4832065E-01 -.4248409     0.8847162E-02 0.9664129E-02 -.3299718E-02 -.4052648E-02 0.0000000E+00 0.0000000E+00 -98.72705     0.0000000E+00
  10.99498      12.42907     0.9949842E-01 -.3570928     0.1162395E-01 0.9949842E-02 -.6692529E-02 -.7697683E-02 0.0000000E+00 0.0000000E+00 -227.4078     0.0000000E+00
  13.89950      12.40977     0.1899503     -.3590228     0.1066207E-01 0.1899503E-01 -.7290170E-02 -.4283753E-02 0.0000000E+00 0.0000000E+00 -237.2419     0.0000000E+00
  20.03303      13.68058     0.3033027     -.2719418     0.3467891E-01 0.2022018E-01 -.2318278E-02 -.1692360E-01  125.0033      84.29275      1.902726     -224.8588    
 0.0000000E+00  13.51372     0.0000000E+00 -.4486282     0.5122019E-02 0.5122019E-02 -.3520219E-02 0.2401109E-04 0.0000000E+00 0.0000000E+00 -121.4921     0.0000000E+00
  2.626376      13.56305     0.1263764E-01 -.4436948     0.4988093E-02 0.5055056E-02 -.3743677E-02 -.1976024E-02 0.0000000E+00 0.0000000E+00 -130.0110     -23.46381    
  5.249405      13.70986     0.2494047E-01 -.4290144     0.4854168E-02 0.4988093E-02 -.5004956E-02 -.4428275E-02 0.0000000E+00 0.0000000E+00 -199.5779     -44.79759    
  5.247162      13.70959     0.2471624E-01 -.4290414     0.4719095E-02 0.4943249E-02 -.9008291E-03 -.3903988E-02 0.0000000E+00 0.0000000E+00  43.52598     -41.43426    
  7.865127      13.95888     0.3651273E-01 -.4041115     0.4718092E-02 0.4868364E-02 -.2041472E-02 -.5235410E-02 0.0000000E+00 0.0000000E+00 -83.31962     -71.76140    
  10.48307      14.30306     0.4830670E-01 -.3696940     0.4717089E-02 0.4830670E-02 -.5908696E-02 -.8303575E-02 0.0000000E+00 0.0000000E+00 -255.1423     -118.6387    
  13.60559      14.70307     0.1605591     -.3696929     0.5677013E-02 0.1605591E-01 -.3379925E-02 -.2770370E-02 0.0000000E+00 0.0000000E+00 -264.5337     -18.02425    
  16.29161      15.08732     0.1791614     -.3312684     0.9204834E-02 0.1433291E-01 -.2848591E-02 -.1180096E-01 0.0000000E+00 0.0000000E+00 -7.561858     -19.60937    
  19.06583      15.59977     0.2065833     -.2800227     0.1273266E-01 0.1377222E-01 -.5762635E-02 -.3143231E-01 0.0000000E+00 0.0000000E+00  197.0119     -22.78909    
 0.0000000E+00  13.51372     0.0000000E+00 -.4486283     0.4467917E-02 0.4467917E-02 -.5113496E-02 0.1693216E-04  1653.206      1653.206     -121.1301      1.567792    
  2.610734      13.56291     0.1107339E-01 -.4437092     0.4390792E-02 0.4429355E-02 -.5006138E-02 -.3746818E-03  1637.124      1644.265     -103.0483     -34.69276    
  5.219540      13.70963     0.2195396E-01 -.4290366     0.4222354E-02 0.4390792E-02 -.4817943E-02 -.6029875E-03  1601.869      1633.061     -72.26036     -55.83217    
  7.817286      13.95879     0.3172863E-01 -.4041208     0.3688699E-02 0.4230485E-02 -.4496123E-02 -.1578305E-03  1422.642      1522.973     -93.06545     -14.61394    
  10.40397      14.30278     0.4039746E-01 -.3697223     0.3411255E-02 0.4039746E-02 -.4522515E-02 -.6739493E-03  1264.411      1380.798     -204.8054     -62.40272    
  12.98432      14.68731     0.4843228E-01 -.3312692     0.2851711E-02 0.3874583E-02 -.3161012E-02 -.1307413E-02  1298.372      1487.792      184.9042     -121.0568    
  15.54656      15.19999     0.5465601E-01 -.2800008     0.2127270E-02 0.3643734E-02 -.4338797E-02 0.6279563E-03  703.3663      984.1930     -494.0535      58.14410    
 0.0000000E+00  15.20239     0.0000000E+00 -.4547608     0.1518426E-02 0.1518426E-02 -.1895133E-02 0.2833398E-04  527.8577      527.8577     -104.2829      2.623516    
  5.073405      15.40171     0.7340483E-02 -.4348292     0.1408059E-02 0.1468097E-02 -.1802189E-02 -.1247723E-04  492.7815      503.8996     -101.7088     -1.155299    
  10.14160      15.99604     0.1415969E-01 -.3753956     0.1006279E-02 0.1415969E-02 -.1961233E-02 -.9775853E-04  285.9501      361.8186     -263.5893     -9.051715    
  15.17979      16.88940     0.1797851E-01 -.2860596     0.8443019E-03 0.1198567E-02 -.2585610E-02 0.1741191E-02  39.09351      104.6982     -596.0753      161.2214    
 0.0000000E+00  16.94739     0.0000000E+00 -.4552613     -.1293019E-02 -.1293019E-02 0.1323229E-02 -.3117731E-04 -512.2768     -512.2768     -27.78637     -2.886788    
  2.467380      16.99679     -.3261965E-02 -.4503210     -.1316553E-02 -.1304786E-02 0.1227979E-02 0.8479604E-04 -544.8407     -542.6616     -73.63098      7.851485    
  4.934172      17.14656     -.6582767E-02 -.4353442     -.1434947E-02 -.1316553E-02 0.1213565E-02 0.4630439E-03 -598.0007     -576.0760     -107.5355      42.87443    
  7.400594      17.39903     -.9940627E-02 -.4100974     -.1156483E-02 -.1325417E-02 0.1080913E-02 -.3880715E-04 -516.8457     -548.1298     -102.5132     -3.593255    
  9.876348      17.73413     -.1236518E-01 -.3765866     -.9483457E-03 -.1236518E-02 0.6000491E-03 0.2574831E-03 -518.0178     -571.3830     -231.2780      23.84103    
  12.35958      18.15218     -.1404211E-01 -.3347825     -.2280141E-03 -.1123369E-02 0.1153458E-02 0.1059313E-02 -84.98653     -250.7930      170.8416      98.08451    
  14.86495      18.60950     -.1350525E-01 -.2890504     0.6575036E-03 -.9003500E-03 -.8324221E-03 0.2571593E-02 -110.5512     -399.0426     -386.4633      238.1104    
           1           3          14          12
           3           5          16          14
           5           7          18          16
          19          21          36          34
          22          24          39          37
          25          27          42          40
          43          45          60          58
          46          48          63          61
          49          51          66          64
          67          69          80          78
          69          71          82          80
          71          73          84          82
