 TITLE = "New Mesh                                                                        "
 VARIABLES = "R","Z","DISP_R","DISP_Z","EPSR","EPSTH","EPSZ","EPSRZ","SIGMAR","SIGMATH","SIGMAZ","SIGMARZ","SIGMA1","SIGMA2","SIGMA3","E_VERT","E_HORIZ","G_MOD","MRRATIO","G_RATIO"
 ZONE T="GEOM & DISP 1", N= 1385, E=  440, F=FEPOINT, ET=QUADRILATERAL
  .00000E+00  .00000E+00  .00000E+00  .00000E+00  .000000E+00  .000000E+00  .000000E+00  .000000E+00  .000000E+00  .000000E+00  .000000E+00  .000000E+00  .000000E+00  .000000E+00  .000000E+00  .000000E+00  .000000E+00  .000000E+00  .00000E+00  .00000E+00
  .10000E+01  .00000E+00  .00000E+00  .00000E+00  .000000E+00  .000000E+00  .000000E+00  .000000E+00  .000000E+00  .000000E+00  .000000E+00  .000000E+00  .000000E+00  .000000E+00  .000000E+00  .000000E+00  .000000E+00  .000000E+00  .00000E+00  .00000E+00
  .20000E+01  .00000E+00  .00000E+00  .00000E+00  .000000E+00  .000000E+00  .000000E+00  .000000E+00  .000000E+00  .000000E+00  .000000E+00  .000000E+00  .000000E+00  .000000E+00  .000000E+00  .000000E+00  .000000E+00  .000000E+00  .00000E+00  .00000E+00
  .30000E+01  .00000E+00  .00000E+00  .00000E+00  .000000E+00  .000000E+00  .000000E+00  .000000E+00  .000000E+00  .000000E+00  .000000E+00  .000000E+00  .000000E+00  .000000E+00  .000000E+00  .000000E+00  .000000E+00  .000000E+00  .00000E+00  .00000E+00
  .40000E+01  .00000E+00  .00000E+00  .00000E+00  .000000E+00  .000000E+00  .000000E+00  .000000E+00  .000000E+00  .000000E+00  .000000E+00  .000000E+00  .000000E+00  .000000E+00  .000000E+00  .000000E+00  .000000E+00  .000000E+00  .00000E+00  .00000E+00
  .50000E+01  .00000E+00  .00000E+00  .00000E+00  .000000E+00  .000000E+00  .000000E+00  .000000E+00  .000000E+00  .000000E+00  .000000E+00  .000000E+00  .000000E+00  .000000E+00  .000000E+00  .000000E+00  .000000E+00  .000000E+00  .00000E+00  .00000E+00
  .60000E+01  .00000E+00  .00000E+00  .00000E+00  .000000E+00  .000000E+00  .000000E+00  .000000E+00  .000000E+00  .000000E+00  .000000E+00  .000000E+00  .000000E+00  .000000E+00  .000000E+00  .000000E+00  .000000E+00  .000000E+00  .00000E+00  .00000E+00
  .70000E+01  .00000E+00  .00000E+00  .00000E+00  .000000E+00  .000000E+00  .000000E+00  .000000E+00  .000000E+00  .000000E+00  .000000E+00  .000000E+00  .000000E+00  .000000E+00  .000000E+00  .000000E+00  .000000E+00  .000000E+00  .00000E+00  .00000E+00
  .80000E+01  .00000E+00  .00000E+00  .00000E+00  .000000E+00  .000000E+00  .000000E+00  .000000E+00  .000000E+00  .000000E+00  .000000E+00  .000000E+00  .000000E+00  .000000E+00  .000000E+00  .000000E+00  .000000E+00  .000000E+00  .00000E+00  .00000E+00
  .10000E+02  .00000E+00  .00000E+00  .00000E+00  .000000E+00  .000000E+00  .000000E+00  .000000E+00  .000000E+00  .000000E+00  .000000E+00  .000000E+00  .000000E+00  .000000E+00  .000000E+00  .000000E+00  .000000E+00  .000000E+00  .00000E+00  .00000E+00
  .12000E+02  .00000E+00  .00000E+00  .00000E+00  .000000E+00  .000000E+00  .000000E+00  .000000E+00  .000000E+00  .000000E+00  .000000E+00  .000000E+00  .000000E+00  .000000E+00  .000000E+00  .000000E+00  .000000E+00  .000000E+00  .00000E+00  .00000E+00
  .15000E+02  .00000E+00  .00000E+00  .00000E+00  .000000E+00  .000000E+00  .000000E+00  .000000E+00  .000000E+00  .000000E+00  .000000E+00  .000000E+00  .000000E+00  .000000E+00  .000000E+00  .000000E+00  .000000E+00  .000000E+00  .00000E+00  .00000E+00
  .18000E+02  .00000E+00  .00000E+00  .00000E+00  .000000E+00  .000000E+00  .000000E+00  .000000E+00  .000000E+00  .000000E+00  .000000E+00  .000000E+00  .000000E+00  .000000E+00  .000000E+00  .000000E+00  .000000E+00  .000000E+00  .00000E+00  .00000E+00
  .21000E+02  .00000E+00  .00000E+00  .00000E+00  .000000E+00  .000000E+00  .000000E+00  .000000E+00  .000000E+00  .000000E+00  .000000E+00  .000000E+00  .000000E+00  .000000E+00  .000000E+00  .000000E+00  .000000E+00  .000000E+00  .00000E+00  .00000E+00
  .24000E+02  .00000E+00  .00000E+00  .00000E+00  .000000E+00  .000000E+00  .000000E+00  .000000E+00  .000000E+00  .000000E+00  .000000E+00  .000000E+00  .000000E+00  .000000E+00  .000000E+00  .000000E+00  .000000E+00  .000000E+00  .00000E+00  .00000E+00
  .30000E+02  .00000E+00  .00000E+00  .00000E+00  .000000E+00  .000000E+00  .000000E+00  .000000E+00  .000000E+00  .000000E+00  .000000E+00  .000000E+00  .000000E+00  .000000E+00  .000000E+00  .000000E+00  .000000E+00  .000000E+00  .00000E+00  .00000E+00
  .36000E+02  .00000E+00  .00000E+00  .00000E+00  .000000E+00  .000000E+00  .000000E+00  .000000E+00  .000000E+00  .000000E+00  .000000E+00  .000000E+00  .000000E+00  .000000E+00  .000000E+00  .000000E+00  .000000E+00  .000000E+00  .00000E+00  .00000E+00
  .42000E+02  .00000E+00  .00000E+00  .00000E+00  .000000E+00  .000000E+00  .000000E+00  .000000E+00  .000000E+00  .000000E+00  .000000E+00  .000000E+00  .000000E+00  .000000E+00  .000000E+00  .000000E+00  .000000E+00  .000000E+00  .00000E+00  .00000E+00
  .48000E+02  .00000E+00  .00000E+00  .00000E+00  .000000E+00  .000000E+00  .000000E+00  .000000E+00  .000000E+00  .000000E+00  .000000E+00  .000000E+00  .000000E+00  .000000E+00  .000000E+00  .000000E+00  .000000E+00  .000000E+00  .00000E+00  .00000E+00
  .54000E+02  .00000E+00  .00000E+00  .00000E+00  .000000E+00  .000000E+00  .000000E+00  .000000E+00  .000000E+00  .000000E+00  .000000E+00  .000000E+00  .000000E+00  .000000E+00  .000000E+00  .000000E+00  .000000E+00  .000000E+00  .00000E+00  .00000E+00
  .60000E+02  .00000E+00  .00000E+00  .00000E+00  .000000E+00  .000000E+00  .000000E+00  .000000E+00  .000000E+00  .000000E+00  .000000E+00  .000000E+00  .000000E+00  .000000E+00  .000000E+00  .000000E+00  .000000E+00  .000000E+00  .00000E+00  .00000E+00
  .66000E+02  .00000E+00  .00000E+00  .00000E+00  .000000E+00  .000000E+00  .000000E+00  .000000E+00  .000000E+00  .000000E+00  .000000E+00  .000000E+00  .000000E+00  .000000E+00  .000000E+00  .000000E+00  .000000E+00  .000000E+00  .00000E+00  .00000E+00
  .72000E+02  .00000E+00  .00000E+00  .00000E+00  .000000E+00  .000000E+00  .000000E+00  .000000E+00  .000000E+00  .000000E+00  .000000E+00  .000000E+00  .000000E+00  .000000E+00  .000000E+00  .000000E+00  .000000E+00  .000000E+00  .00000E+00  .00000E+00
  .78000E+02  .00000E+00  .00000E+00  .00000E+00  .000000E+00  .000000E+00  .000000E+00  .000000E+00  .000000E+00  .000000E+00  .000000E+00  .000000E+00  .000000E+00  .000000E+00  .000000E+00  .000000E+00  .000000E+00  .000000E+00  .00000E+00  .00000E+00
  .84000E+02  .00000E+00  .00000E+00  .00000E+00  .000000E+00  .000000E+00  .000000E+00  .000000E+00  .000000E+00  .000000E+00  .000000E+00  .000000E+00  .000000E+00  .000000E+00  .000000E+00  .000000E+00  .000000E+00  .000000E+00  .00000E+00  .00000E+00
  .90000E+02  .00000E+00  .00000E+00  .00000E+00  .000000E+00  .000000E+00  .000000E+00  .000000E+00  .000000E+00  .000000E+00  .000000E+00  .000000E+00  .000000E+00  .000000E+00  .000000E+00  .000000E+00  .000000E+00  .000000E+00  .00000E+00  .00000E+00
  .96000E+02  .00000E+00  .00000E+00  .00000E+00  .000000E+00  .000000E+00  .000000E+00  .000000E+00  .000000E+00  .000000E+00  .000000E+00  .000000E+00  .000000E+00  .000000E+00  .000000E+00  .000000E+00  .000000E+00  .000000E+00  .00000E+00  .00000E+00
  .10200E+03  .00000E+00  .00000E+00  .00000E+00  .000000E+00  .000000E+00  .000000E+00  .000000E+00  .000000E+00  .000000E+00  .000000E+00  .000000E+00  .000000E+00  .000000E+00  .000000E+00  .000000E+00  .000000E+00  .000000E+00  .00000E+00  .00000E+00
  .10800E+03  .00000E+00  .00000E+00  .00000E+00  .000000E+00  .000000E+00  .000000E+00  .000000E+00  .000000E+00  .000000E+00  .000000E+00  .000000E+00  .000000E+00  .000000E+00  .000000E+00  .000000E+00  .000000E+00  .000000E+00  .00000E+00  .00000E+00
  .11400E+03  .00000E+00  .00000E+00  .00000E+00  .000000E+00  .000000E+00  .000000E+00  .000000E+00  .000000E+00  .000000E+00  .000000E+00  .000000E+00  .000000E+00  .000000E+00  .000000E+00  .000000E+00  .000000E+00  .000000E+00  .00000E+00  .00000E+00
  .12000E+03  .00000E+00  .00000E+00  .00000E+00  .000000E+00  .000000E+00  .000000E+00  .000000E+00  .000000E+00  .000000E+00  .000000E+00  .000000E+00  .000000E+00  .000000E+00  .000000E+00  .000000E+00  .000000E+00  .000000E+00  .00000E+00  .00000E+00
  .12600E+03  .00000E+00  .00000E+00  .00000E+00  .000000E+00  .000000E+00  .000000E+00  .000000E+00  .000000E+00  .000000E+00  .000000E+00  .000000E+00  .000000E+00  .000000E+00  .000000E+00  .000000E+00  .000000E+00  .000000E+00  .00000E+00  .00000E+00
  .13200E+03  .00000E+00  .00000E+00  .00000E+00  .000000E+00  .000000E+00  .000000E+00  .000000E+00  .000000E+00  .000000E+00  .000000E+00  .000000E+00  .000000E+00  .000000E+00  .000000E+00  .000000E+00  .000000E+00  .000000E+00  .00000E+00  .00000E+00
  .13800E+03  .00000E+00  .00000E+00  .00000E+00  .000000E+00  .000000E+00  .000000E+00  .000000E+00  .000000E+00  .000000E+00  .000000E+00  .000000E+00  .000000E+00  .000000E+00  .000000E+00  .000000E+00  .000000E+00  .000000E+00  .00000E+00  .00000E+00
  .14400E+03  .00000E+00  .00000E+00  .00000E+00  .000000E+00  .000000E+00  .000000E+00  .000000E+00  .000000E+00  .000000E+00  .000000E+00  .000000E+00  .000000E+00  .000000E+00  .000000E+00  .000000E+00  .000000E+00  .000000E+00  .00000E+00  .00000E+00
  .15000E+03  .00000E+00  .00000E+00  .00000E+00  .000000E+00  .000000E+00  .000000E+00  .000000E+00  .000000E+00  .000000E+00  .000000E+00  .000000E+00  .000000E+00  .000000E+00  .000000E+00  .000000E+00  .000000E+00  .000000E+00  .00000E+00  .00000E+00
  .15600E+03  .00000E+00  .00000E+00  .00000E+00  .000000E+00  .000000E+00  .000000E+00  .000000E+00  .000000E+00  .000000E+00  .000000E+00  .000000E+00  .000000E+00  .000000E+00  .000000E+00  .000000E+00  .000000E+00  .000000E+00  .00000E+00  .00000E+00
  .16200E+03  .00000E+00  .00000E+00  .00000E+00  .000000E+00  .000000E+00  .000000E+00  .000000E+00  .000000E+00  .000000E+00  .000000E+00  .000000E+00  .000000E+00  .000000E+00  .000000E+00  .000000E+00  .000000E+00  .000000E+00  .00000E+00  .00000E+00
  .16800E+03  .00000E+00  .00000E+00  .00000E+00  .000000E+00  .000000E+00  .000000E+00  .000000E+00  .000000E+00  .000000E+00  .000000E+00  .000000E+00  .000000E+00  .000000E+00  .000000E+00  .000000E+00  .000000E+00  .000000E+00  .00000E+00  .00000E+00
  .17400E+03  .00000E+00  .00000E+00  .00000E+00  .000000E+00  .000000E+00  .000000E+00  .000000E+00  .000000E+00  .000000E+00  .000000E+00  .000000E+00  .000000E+00  .000000E+00  .000000E+00  .000000E+00  .000000E+00  .000000E+00  .00000E+00  .00000E+00
  .18000E+03  .00000E+00  .00000E+00  .00000E+00  .000000E+00  .000000E+00  .000000E+00  .000000E+00  .000000E+00  .000000E+00  .000000E+00  .000000E+00  .000000E+00  .000000E+00  .000000E+00  .000000E+00  .000000E+00  .000000E+00  .00000E+00  .00000E+00
  .00000E+00  .22000E+02  .00000E+00 -.57451E-04  .000000E+00  .000000E+00  .000000E+00  .000000E+00  .000000E+00  .000000E+00  .000000E+00  .000000E+00  .000000E+00  .000000E+00  .000000E+00  .000000E+00  .000000E+00  .000000E+00  .00000E+00  .00000E+00
  .20000E+01  .22000E+02  .36002E-06 -.57448E-04  .000000E+00  .000000E+00  .000000E+00  .000000E+00  .000000E+00  .000000E+00  .000000E+00  .000000E+00  .000000E+00  .000000E+00  .000000E+00  .000000E+00  .000000E+00  .000000E+00  .00000E+00  .00000E+00
  .40000E+01  .22000E+02  .71954E-06 -.57440E-04  .000000E+00  .000000E+00  .000000E+00  .000000E+00  .000000E+00  .000000E+00  .000000E+00  .000000E+00  .000000E+00  .000000E+00  .000000E+00  .000000E+00  .000000E+00  .000000E+00  .00000E+00  .00000E+00
  .60000E+01  .22000E+02  .10781E-05 -.57426E-04  .000000E+00  .000000E+00  .000000E+00  .000000E+00  .000000E+00  .000000E+00  .000000E+00  .000000E+00  .000000E+00  .000000E+00  .000000E+00  .000000E+00  .000000E+00  .000000E+00  .00000E+00  .00000E+00
  .80000E+01  .22000E+02  .14351E-05 -.57407E-04  .000000E+00  .000000E+00  .000000E+00  .000000E+00  .000000E+00  .000000E+00  .000000E+00  .000000E+00  .000000E+00  .000000E+00  .000000E+00  .000000E+00  .000000E+00  .000000E+00  .00000E+00  .00000E+00
  .12000E+02  .22000E+02  .21426E-05 -.57351E-04  .000000E+00  .000000E+00  .000000E+00  .000000E+00  .000000E+00  .000000E+00  .000000E+00  .000000E+00  .000000E+00  .000000E+00  .000000E+00  .000000E+00  .000000E+00  .000000E+00  .00000E+00  .00000E+00
  .18000E+02  .22000E+02  .31803E-05 -.57229E-04  .000000E+00  .000000E+00  .000000E+00  .000000E+00  .000000E+00  .000000E+00  .000000E+00  .000000E+00  .000000E+00  .000000E+00  .000000E+00  .000000E+00  .000000E+00  .000000E+00  .00000E+00  .00000E+00
  .24000E+02  .22000E+02  .41785E-05 -.57058E-04  .000000E+00  .000000E+00  .000000E+00  .000000E+00  .000000E+00  .000000E+00  .000000E+00  .000000E+00  .000000E+00  .000000E+00  .000000E+00  .000000E+00  .000000E+00  .000000E+00  .00000E+00  .00000E+00
  .36000E+02  .22000E+02  .60073E-05 -.56593E-04  .000000E+00  .000000E+00  .000000E+00  .000000E+00  .000000E+00  .000000E+00  .000000E+00  .000000E+00  .000000E+00  .000000E+00  .000000E+00  .000000E+00  .000000E+00  .000000E+00  .00000E+00  .00000E+00
  .48000E+02  .22000E+02  .75421E-05 -.55977E-04  .000000E+00  .000000E+00  .000000E+00  .000000E+00  .000000E+00  .000000E+00  .000000E+00  .000000E+00  .000000E+00  .000000E+00  .000000E+00  .000000E+00  .000000E+00  .000000E+00  .00000E+00  .00000E+00
  .60000E+02  .22000E+02  .87110E-05 -.55239E-04  .000000E+00  .000000E+00  .000000E+00  .000000E+00  .000000E+00  .000000E+00  .000000E+00  .000000E+00  .000000E+00  .000000E+00  .000000E+00  .000000E+00  .000000E+00  .000000E+00  .00000E+00  .00000E+00
  .72000E+02  .22000E+02  .94627E-05 -.54416E-04  .000000E+00  .000000E+00  .000000E+00  .000000E+00  .000000E+00  .000000E+00  .000000E+00  .000000E+00  .000000E+00  .000000E+00  .000000E+00  .000000E+00  .000000E+00  .000000E+00  .00000E+00  .00000E+00
  .84000E+02  .22000E+02  .97689E-05 -.53547E-04  .000000E+00  .000000E+00  .000000E+00  .000000E+00  .000000E+00  .000000E+00  .000000E+00  .000000E+00  .000000E+00  .000000E+00  .000000E+00  .000000E+00  .000000E+00  .000000E+00  .00000E+00  .00000E+00
  .96000E+02  .22000E+02  .96252E-05 -.52673E-04  .000000E+00  .000000E+00  .000000E+00  .000000E+00  .000000E+00  .000000E+00  .000000E+00  .000000E+00  .000000E+00  .000000E+00  .000000E+00  .000000E+00  .000000E+00  .000000E+00  .00000E+00  .00000E+00
  .10800E+03  .22000E+02  .90509E-05 -.51833E-04  .000000E+00  .000000E+00  .000000E+00  .000000E+00  .000000E+00  .000000E+00  .000000E+00  .000000E+00  .000000E+00  .000000E+00  .000000E+00  .000000E+00  .000000E+00  .000000E+00  .00000E+00  .00000E+00
  .12000E+03  .22000E+02  .80873E-05 -.51064E-04  .000000E+00  .000000E+00  .000000E+00  .000000E+00  .000000E+00  .000000E+00  .000000E+00  .000000E+00  .000000E+00  .000000E+00  .000000E+00  .000000E+00  .000000E+00  .000000E+00  .00000E+00  .00000E+00
  .13200E+03  .22000E+02  .67951E-05 -.50398E-04  .000000E+00  .000000E+00  .000000E+00  .000000E+00  .000000E+00  .000000E+00  .000000E+00  .000000E+00  .000000E+00  .000000E+00  .000000E+00  .000000E+00  .000000E+00  .000000E+00  .00000E+00  .00000E+00
  .14400E+03  .22000E+02  .52504E-05 -.49860E-04  .000000E+00  .000000E+00  .000000E+00  .000000E+00  .000000E+00  .000000E+00  .000000E+00  .000000E+00  .000000E+00  .000000E+00  .000000E+00  .000000E+00  .000000E+00  .000000E+00  .00000E+00  .00000E+00
  .15600E+03  .22000E+02  .35406E-05 -.49468E-04  .000000E+00  .000000E+00  .000000E+00  .000000E+00  .000000E+00  .000000E+00  .000000E+00  .000000E+00  .000000E+00  .000000E+00  .000000E+00  .000000E+00  .000000E+00  .000000E+00  .00000E+00  .00000E+00
  .16800E+03  .22000E+02  .17590E-05 -.49232E-04  .000000E+00  .000000E+00  .000000E+00  .000000E+00  .000000E+00  .000000E+00  .000000E+00  .000000E+00  .000000E+00  .000000E+00  .000000E+00  .000000E+00  .000000E+00  .000000E+00  .00000E+00  .00000E+00
  .18000E+03  .22000E+02  .00000E+00 -.49153E-04  .000000E+00  .000000E+00  .000000E+00  .000000E+00  .000000E+00  .000000E+00  .000000E+00  .000000E+00  .000000E+00  .000000E+00  .000000E+00  .000000E+00  .000000E+00  .000000E+00  .00000E+00  .00000E+00
  .00000E+00  .44000E+02  .00000E+00 -.12152E-03  .000000E+00  .000000E+00  .000000E+00  .000000E+00  .000000E+00  .000000E+00  .000000E+00  .000000E+00  .000000E+00  .000000E+00  .000000E+00  .000000E+00  .000000E+00  .000000E+00  .00000E+00  .00000E+00
  .10000E+01  .44000E+02  .32428E-06 -.12152E-03  .000000E+00  .000000E+00  .000000E+00  .000000E+00  .000000E+00  .000000E+00  .000000E+00  .000000E+00  .000000E+00  .000000E+00  .000000E+00  .000000E+00  .000000E+00  .000000E+00  .00000E+00  .00000E+00
  .20000E+01  .44000E+02  .64844E-06 -.12152E-03  .000000E+00  .000000E+00  .000000E+00  .000000E+00  .000000E+00  .000000E+00  .000000E+00  .000000E+00  .000000E+00  .000000E+00  .000000E+00  .000000E+00  .000000E+00  .000000E+00  .00000E+00  .00000E+00
  .30000E+01  .44000E+02  .97239E-06 -.12150E-03  .000000E+00  .000000E+00  .000000E+00  .000000E+00  .000000E+00  .000000E+00  .000000E+00  .000000E+00  .000000E+00  .000000E+00  .000000E+00  .000000E+00  .000000E+00  .000000E+00  .00000E+00  .00000E+00
  .40000E+01  .44000E+02  .12960E-05 -.12149E-03  .000000E+00  .000000E+00  .000000E+00  .000000E+00  .000000E+00  .000000E+00  .000000E+00  .000000E+00  .000000E+00  .000000E+00  .000000E+00  .000000E+00  .000000E+00  .000000E+00  .00000E+00  .00000E+00
  .50000E+01  .44000E+02  .16192E-05 -.12147E-03  .000000E+00  .000000E+00  .000000E+00  .000000E+00  .000000E+00  .000000E+00  .000000E+00  .000000E+00  .000000E+00  .000000E+00  .000000E+00  .000000E+00  .000000E+00  .000000E+00  .00000E+00  .00000E+00
  .60000E+01  .44000E+02  .19418E-05 -.12145E-03  .000000E+00  .000000E+00  .000000E+00  .000000E+00  .000000E+00  .000000E+00  .000000E+00  .000000E+00  .000000E+00  .000000E+00  .000000E+00  .000000E+00  .000000E+00  .000000E+00  .00000E+00  .00000E+00
  .70000E+01  .44000E+02  .22637E-05 -.12142E-03  .000000E+00  .000000E+00  .000000E+00  .000000E+00  .000000E+00  .000000E+00  .000000E+00  .000000E+00  .000000E+00  .000000E+00  .000000E+00  .000000E+00  .000000E+00  .000000E+00  .00000E+00  .00000E+00
  .80000E+01  .44000E+02  .25849E-05 -.12139E-03  .000000E+00  .000000E+00  .000000E+00  .000000E+00  .000000E+00  .000000E+00  .000000E+00  .000000E+00  .000000E+00  .000000E+00  .000000E+00  .000000E+00  .000000E+00  .000000E+00  .00000E+00  .00000E+00
  .10000E+02  .44000E+02  .32244E-05 -.12131E-03  .000000E+00  .000000E+00  .000000E+00  .000000E+00  .000000E+00  .000000E+00  .000000E+00  .000000E+00  .000000E+00  .000000E+00  .000000E+00  .000000E+00  .000000E+00  .000000E+00  .00000E+00  .00000E+00
  .12000E+02  .44000E+02  .38594E-05 -.12122E-03  .000000E+00  .000000E+00  .000000E+00  .000000E+00  .000000E+00  .000000E+00  .000000E+00  .000000E+00  .000000E+00  .000000E+00  .000000E+00  .000000E+00  .000000E+00  .000000E+00  .00000E+00  .00000E+00
  .15000E+02  .44000E+02  .48020E-05 -.12104E-03  .000000E+00  .000000E+00  .000000E+00  .000000E+00  .000000E+00  .000000E+00  .000000E+00  .000000E+00  .000000E+00  .000000E+00  .000000E+00  .000000E+00  .000000E+00  .000000E+00  .00000E+00  .00000E+00
  .18000E+02  .44000E+02  .57293E-05 -.12084E-03  .000000E+00  .000000E+00  .000000E+00  .000000E+00  .000000E+00  .000000E+00  .000000E+00  .000000E+00  .000000E+00  .000000E+00  .000000E+00  .000000E+00  .000000E+00  .000000E+00  .00000E+00  .00000E+00
  .21000E+02  .44000E+02  .66392E-05 -.12059E-03  .000000E+00  .000000E+00  .000000E+00  .000000E+00  .000000E+00  .000000E+00  .000000E+00  .000000E+00  .000000E+00  .000000E+00  .000000E+00  .000000E+00  .000000E+00  .000000E+00  .00000E+00  .00000E+00
  .24000E+02  .44000E+02  .75283E-05 -.12032E-03  .000000E+00  .000000E+00  .000000E+00  .000000E+00  .000000E+00  .000000E+00  .000000E+00  .000000E+00  .000000E+00  .000000E+00  .000000E+00  .000000E+00  .000000E+00  .000000E+00  .00000E+00  .00000E+00
  .30000E+02  .44000E+02  .92351E-05 -.11965E-03  .000000E+00  .000000E+00  .000000E+00  .000000E+00  .000000E+00  .000000E+00  .000000E+00  .000000E+00  .000000E+00  .000000E+00  .000000E+00  .000000E+00  .000000E+00  .000000E+00  .00000E+00  .00000E+00
  .36000E+02  .44000E+02  .10826E-04 -.11887E-03  .000000E+00  .000000E+00  .000000E+00  .000000E+00  .000000E+00  .000000E+00  .000000E+00  .000000E+00  .000000E+00  .000000E+00  .000000E+00  .000000E+00  .000000E+00  .000000E+00  .00000E+00  .00000E+00
  .42000E+02  .44000E+02  .12285E-04 -.11795E-03  .000000E+00  .000000E+00  .000000E+00  .000000E+00  .000000E+00  .000000E+00  .000000E+00  .000000E+00  .000000E+00  .000000E+00  .000000E+00  .000000E+00  .000000E+00  .000000E+00  .00000E+00  .00000E+00
  .48000E+02  .44000E+02  .13592E-04 -.11694E-03  .000000E+00  .000000E+00  .000000E+00  .000000E+00  .000000E+00  .000000E+00  .000000E+00  .000000E+00  .000000E+00  .000000E+00  .000000E+00  .000000E+00  .000000E+00  .000000E+00  .00000E+00  .00000E+00
  .54000E+02  .44000E+02  .14735E-04 -.11582E-03  .000000E+00  .000000E+00  .000000E+00  .000000E+00  .000000E+00  .000000E+00  .000000E+00  .000000E+00  .000000E+00  .000000E+00  .000000E+00  .000000E+00  .000000E+00  .000000E+00  .00000E+00  .00000E+00
  .60000E+02  .44000E+02  .15697E-04 -.11464E-03  .000000E+00  .000000E+00  .000000E+00  .000000E+00  .000000E+00  .000000E+00  .000000E+00  .000000E+00  .000000E+00  .000000E+00  .000000E+00  .000000E+00  .000000E+00  .000000E+00  .00000E+00  .00000E+00
  .66000E+02  .44000E+02  .16474E-04 -.11337E-03  .000000E+00  .000000E+00  .000000E+00  .000000E+00  .000000E+00  .000000E+00  .000000E+00  .000000E+00  .000000E+00  .000000E+00  .000000E+00  .000000E+00  .000000E+00  .000000E+00  .00000E+00  .00000E+00
  .72000E+02  .44000E+02  .17050E-04 -.11207E-03  .000000E+00  .000000E+00  .000000E+00  .000000E+00  .000000E+00  .000000E+00  .000000E+00  .000000E+00  .000000E+00  .000000E+00  .000000E+00  .000000E+00  .000000E+00  .000000E+00  .00000E+00  .00000E+00
  .78000E+02  .44000E+02  .17429E-04 -.11072E-03  .000000E+00  .000000E+00  .000000E+00  .000000E+00  .000000E+00  .000000E+00  .000000E+00  .000000E+00  .000000E+00  .000000E+00  .000000E+00  .000000E+00  .000000E+00  .000000E+00  .00000E+00  .00000E+00
  .84000E+02  .44000E+02  .17600E-04 -.10935E-03  .000000E+00  .000000E+00  .000000E+00  .000000E+00  .000000E+00  .000000E+00  .000000E+00  .000000E+00  .000000E+00  .000000E+00  .000000E+00  .000000E+00  .000000E+00  .000000E+00  .00000E+00  .00000E+00
  .90000E+02  .44000E+02  .17571E-04 -.10798E-03  .000000E+00  .000000E+00  .000000E+00  .000000E+00  .000000E+00  .000000E+00  .000000E+00  .000000E+00  .000000E+00  .000000E+00  .000000E+00  .000000E+00  .000000E+00  .000000E+00  .00000E+00  .00000E+00
  .96000E+02  .44000E+02  .17339E-04 -.10662E-03  .000000E+00  .000000E+00  .000000E+00  .000000E+00  .000000E+00  .000000E+00  .000000E+00  .000000E+00  .000000E+00  .000000E+00  .000000E+00  .000000E+00  .000000E+00  .000000E+00  .00000E+00  .00000E+00
  .10200E+03  .44000E+02  .16915E-04 -.10530E-03  .000000E+00  .000000E+00  .000000E+00  .000000E+00  .000000E+00  .000000E+00  .000000E+00  .000000E+00  .000000E+00  .000000E+00  .000000E+00  .000000E+00  .000000E+00  .000000E+00  .00000E+00  .00000E+00
  .10800E+03  .44000E+02  .16302E-04 -.10401E-03  .000000E+00  .000000E+00  .000000E+00  .000000E+00  .000000E+00  .000000E+00  .000000E+00  .000000E+00  .000000E+00  .000000E+00  .000000E+00  .000000E+00  .000000E+00  .000000E+00  .00000E+00  .00000E+00
  .11400E+03  .44000E+02  .15516E-04 -.10278E-03  .000000E+00  .000000E+00  .000000E+00  .000000E+00  .000000E+00  .000000E+00  .000000E+00  .000000E+00  .000000E+00  .000000E+00  .000000E+00  .000000E+00  .000000E+00  .000000E+00  .00000E+00  .00000E+00
  .12000E+03  .44000E+02  .14564E-04 -.10161E-03  .000000E+00  .000000E+00  .000000E+00  .000000E+00  .000000E+00  .000000E+00  .000000E+00  .000000E+00  .000000E+00  .000000E+00  .000000E+00  .000000E+00  .000000E+00  .000000E+00  .00000E+00  .00000E+00
  .12600E+03  .44000E+02  .13467E-04 -.10053E-03  .000000E+00  .000000E+00  .000000E+00  .000000E+00  .000000E+00  .000000E+00  .000000E+00  .000000E+00  .000000E+00  .000000E+00  .000000E+00  .000000E+00  .000000E+00  .000000E+00  .00000E+00  .00000E+00
  .13200E+03  .44000E+02  .12235E-04 -.99535E-04  .000000E+00  .000000E+00  .000000E+00  .000000E+00  .000000E+00  .000000E+00  .000000E+00  .000000E+00  .000000E+00  .000000E+00  .000000E+00  .000000E+00  .000000E+00  .000000E+00  .00000E+00  .00000E+00
  .13800E+03  .44000E+02  .10892E-04 -.98650E-04  .000000E+00  .000000E+00  .000000E+00  .000000E+00  .000000E+00  .000000E+00  .000000E+00  .000000E+00  .000000E+00  .000000E+00  .000000E+00  .000000E+00  .000000E+00  .000000E+00  .00000E+00  .00000E+00
  .14400E+03  .44000E+02  .94529E-05 -.97860E-04  .000000E+00  .000000E+00  .000000E+00  .000000E+00  .000000E+00  .000000E+00  .000000E+00  .000000E+00  .000000E+00  .000000E+00  .000000E+00  .000000E+00  .000000E+00  .000000E+00  .00000E+00  .00000E+00
  .15000E+03  .44000E+02  .79406E-05 -.97198E-04  .000000E+00  .000000E+00  .000000E+00  .000000E+00  .000000E+00  .000000E+00  .000000E+00  .000000E+00  .000000E+00  .000000E+00  .000000E+00  .000000E+00  .000000E+00  .000000E+00  .00000E+00  .00000E+00
  .15600E+03  .44000E+02  .63737E-05 -.96641E-04  .000000E+00  .000000E+00  .000000E+00  .000000E+00  .000000E+00  .000000E+00  .000000E+00  .000000E+00  .000000E+00  .000000E+00  .000000E+00  .000000E+00  .000000E+00  .000000E+00  .00000E+00  .00000E+00
  .16200E+03  .44000E+02  .47752E-05 -.96220E-04  .000000E+00  .000000E+00  .000000E+00  .000000E+00  .000000E+00  .000000E+00  .000000E+00  .000000E+00  .000000E+00  .000000E+00  .000000E+00  .000000E+00  .000000E+00  .000000E+00  .00000E+00  .00000E+00
  .16800E+03  .44000E+02  .31657E-05 -.95908E-04  .000000E+00  .000000E+00  .000000E+00  .000000E+00  .000000E+00  .000000E+00  .000000E+00  .000000E+00  .000000E+00  .000000E+00  .000000E+00  .000000E+00  .000000E+00  .000000E+00  .00000E+00  .00000E+00
  .17400E+03  .44000E+02  .15668E-05 -.95732E-04  .000000E+00  .000000E+00  .000000E+00  .000000E+00  .000000E+00  .000000E+00  .000000E+00  .000000E+00  .000000E+00  .000000E+00  .000000E+00  .000000E+00  .000000E+00  .000000E+00  .00000E+00  .00000E+00
  .18000E+03  .44000E+02  .00000E+00 -.95664E-04  .000000E+00  .000000E+00  .000000E+00  .000000E+00  .000000E+00  .000000E+00  .000000E+00  .000000E+00  .000000E+00  .000000E+00  .000000E+00  .000000E+00  .000000E+00  .000000E+00  .00000E+00  .00000E+00
  .00000E+00  .64000E+02  .00000E+00 -.18508E-03  .000000E+00  .000000E+00  .000000E+00  .000000E+00  .000000E+00  .000000E+00  .000000E+00  .000000E+00  .000000E+00  .000000E+00  .000000E+00  .000000E+00  .000000E+00  .000000E+00  .00000E+00  .00000E+00
  .20000E+01  .64000E+02  .93234E-06 -.18507E-03  .000000E+00  .000000E+00  .000000E+00  .000000E+00  .000000E+00  .000000E+00  .000000E+00  .000000E+00  .000000E+00  .000000E+00  .000000E+00  .000000E+00  .000000E+00  .000000E+00  .00000E+00  .00000E+00
  .40000E+01  .64000E+02  .18634E-05 -.18502E-03  .000000E+00  .000000E+00  .000000E+00  .000000E+00  .000000E+00  .000000E+00  .000000E+00  .000000E+00  .000000E+00  .000000E+00  .000000E+00  .000000E+00  .000000E+00  .000000E+00  .00000E+00  .00000E+00
  .60000E+01  .64000E+02  .27918E-05 -.18494E-03  .000000E+00  .000000E+00  .000000E+00  .000000E+00  .000000E+00  .000000E+00  .000000E+00  .000000E+00  .000000E+00  .000000E+00  .000000E+00  .000000E+00  .000000E+00  .000000E+00  .00000E+00  .00000E+00
  .80000E+01  .64000E+02  .37164E-05 -.18482E-03  .000000E+00  .000000E+00  .000000E+00  .000000E+00  .000000E+00  .000000E+00  .000000E+00  .000000E+00  .000000E+00  .000000E+00  .000000E+00  .000000E+00  .000000E+00  .000000E+00  .00000E+00  .00000E+00
  .12000E+02  .64000E+02  .55487E-05 -.18450E-03  .000000E+00  .000000E+00  .000000E+00  .000000E+00  .000000E+00  .000000E+00  .000000E+00  .000000E+00  .000000E+00  .000000E+00  .000000E+00  .000000E+00  .000000E+00  .000000E+00  .00000E+00  .00000E+00
  .18000E+02  .64000E+02  .82361E-05 -.18378E-03  .000000E+00  .000000E+00  .000000E+00  .000000E+00  .000000E+00  .000000E+00  .000000E+00  .000000E+00  .000000E+00  .000000E+00  .000000E+00  .000000E+00  .000000E+00  .000000E+00  .00000E+00  .00000E+00
  .24000E+02  .64000E+02  .10821E-04 -.18278E-03  .000000E+00  .000000E+00  .000000E+00  .000000E+00  .000000E+00  .000000E+00  .000000E+00  .000000E+00  .000000E+00  .000000E+00  .000000E+00  .000000E+00  .000000E+00  .000000E+00  .00000E+00  .00000E+00
  .36000E+02  .64000E+02  .15555E-04 -.18001E-03  .000000E+00  .000000E+00  .000000E+00  .000000E+00  .000000E+00  .000000E+00  .000000E+00  .000000E+00  .000000E+00  .000000E+00  .000000E+00  .000000E+00  .000000E+00  .000000E+00  .00000E+00  .00000E+00
  .48000E+02  .64000E+02  .19520E-04 -.17633E-03  .000000E+00  .000000E+00  .000000E+00  .000000E+00  .000000E+00  .000000E+00  .000000E+00  .000000E+00  .000000E+00  .000000E+00  .000000E+00  .000000E+00  .000000E+00  .000000E+00  .00000E+00  .00000E+00
  .60000E+02  .64000E+02  .22532E-04 -.17194E-03  .000000E+00  .000000E+00  .000000E+00  .000000E+00  .000000E+00  .000000E+00  .000000E+00  .000000E+00  .000000E+00  .000000E+00  .000000E+00  .000000E+00  .000000E+00  .000000E+00  .00000E+00  .00000E+00
  .72000E+02  .64000E+02  .24458E-04 -.16704E-03  .000000E+00  .000000E+00  .000000E+00  .000000E+00  .000000E+00  .000000E+00  .000000E+00  .000000E+00  .000000E+00  .000000E+00  .000000E+00  .000000E+00  .000000E+00  .000000E+00  .00000E+00  .00000E+00