 TITLE ="GEORGIA TECH TEST PIT GRID (LINEAR ELASTIC/ANISOTROPIC RUN)                     "
 VARIABLES = "R","Z","DISP_R","DISP_Z","EPSR","EPSTH","EPSZ","EPSRZ","SIGMAR","SIGMATH","SIGMAZ","SIGMARZ"
 ZONE T="GEOMETRY & DISP", N=  383, E=  112, F=FEPOINT, ET=QUADRILATERAL
  0.00000000  0.00000000  0.00000000  0.00000000     0.0000000     0.0000000    -0.0001597     0.0000000    -3.4228973    -3.4228973    -5.1343456     0.0000000
  0.69999999  0.00000000  0.00000000  0.00000000     0.0000000     0.0000000    -0.0001597     0.0000019    -3.4230803    -3.4230803    -5.1346201     0.0102083
  1.39999998  0.00000000  0.00000000  0.00000000     0.0000000     0.0000000    -0.0001597     0.0000038    -3.4220882    -3.4220882    -5.1331319     0.0204025
  2.97499990  0.00000000  0.00000000  0.00000000     0.0000000     0.0000000    -0.0001596     0.0000081    -3.4207782    -3.4207782    -5.1311669     0.0432348
  4.55000019  0.00000000  0.00000000  0.00000000     0.0000000     0.0000000    -0.0001593     0.0000123    -3.4136711    -3.4136711    -5.1205063     0.0657384
  7.05000019  0.00000000  0.00000000  0.00000000     0.0000000     0.0000000    -0.0001588     0.0000187    -3.4029133    -3.4029133    -5.1043696     0.1003275
  9.55000019  0.00000000  0.00000000  0.00000000     0.0000000     0.0000000    -0.0001577     0.0000248    -3.3794633    -3.3794633    -5.0691946     0.1330978
 13.55000019  0.00000000  0.00000000  0.00000000     0.0000000     0.0000000    -0.0001566     0.0000335    -3.3554515    -3.3554515    -5.0331769     0.1795403
 17.54999924  0.00000000  0.00000000  0.00000000     0.0000000     0.0000000    -0.0001544     0.0000407    -3.3076742    -3.3076742    -4.9615109     0.2180811
 25.04999924  0.00000000  0.00000000  0.00000000     0.0000000     0.0000000    -0.0001495     0.0000493    -3.2041159    -3.2041159    -4.8061735     0.2642570
 32.54999924  0.00000000  0.00000000  0.00000000     0.0000000     0.0000000    -0.0001450     0.0000522    -3.1063606    -3.1063606    -4.6595406     0.2797207
 42.54999924  0.00000000  0.00000000  0.00000000     0.0000000     0.0000000    -0.0001362     0.0000459    -2.9187136    -2.9187136    -4.3780701     0.2457912
 52.54999924  0.00000000  0.00000000  0.00000000     0.0000000     0.0000000    -0.0001324     0.0000350    -2.8376286    -2.8376286    -4.2564426     0.1877108
 65.05000305  0.00000000  0.00000000  0.00000000     0.0000000     0.0000000    -0.0001275     0.0000172    -2.7313720    -2.7313720    -4.0970577     0.0919677
 77.55000305  0.00000000  0.00000000  0.00000000     0.0000000     0.0000000    -0.0001267     0.0000000    -2.7142544    -2.7142544    -4.0713814     0.0000000
  0.00000000 10.00000000  0.00000000 -0.00171259     0.0000252     0.0000252    -0.0001828    -0.0000002    -2.5677822    -2.5677822    -4.7959634    -0.0008786
  1.39999998 10.00000000  0.00003520 -0.00171172     0.0000251     0.0000251    -0.0001826     0.0000044    -2.5670675    -2.5670069    -4.7933325     0.0236291
  4.55000019 10.00000000  0.00011326 -0.00170330     0.0000244     0.0000249    -0.0001814     0.0000145    -2.5677782    -2.5627481    -4.7725452     0.0778062
  9.55000019 10.00000000  0.00022874 -0.00167198     0.0000217     0.0000240    -0.0001767     0.0000290    -2.5755511    -2.5513733    -4.7010758     0.1554208
 17.54999924 10.00000000  0.00037246 -0.00158913     0.0000139     0.0000212    -0.0001635     0.0000471    -2.6007706    -2.5224943    -4.5013189     0.2522987
 32.54999924 10.00000000  0.00046115 -0.00139211    -0.0000026     0.0000142    -0.0001335     0.0000537    -2.6403453    -2.4605118    -4.0422101     0.2876650
 52.54999924 10.00000000  0.00030093 -0.00119974    -0.0000126     0.0000057    -0.0001075     0.0000305    -2.5851271    -2.3891998    -3.6026165     0.1634413
 77.55000305 10.00000000  0.00000000 -0.00113094    -0.0000115     0.0000000    -0.0000995    -0.0000006    -2.5013967    -2.3784681    -3.4447734    -0.0030835
  0.00000000 20.00000000  0.00000000 -0.00365565     0.0000462     0.0000462    -0.0003124     0.0000004    -2.2665858    -2.2665858    -4.6137432     0.0013922
  0.69999999 20.00000000  0.00003234 -0.00365484     0.0000462     0.0000462    -0.0003123     0.0000059    -2.2676549    -2.2673734    -4.6136581     0.0178006
  1.39999998 20.00000000  0.00006463 -0.00365294     0.0000461     0.0000462    -0.0003120     0.0000120    -2.2656376    -2.2653614    -4.6096603     0.0365359
  2.97499990 20.00000000  0.00013674 -0.00364273     0.0000454     0.0000460    -0.0003110     0.0000247    -2.2708575    -2.2665673    -4.6020627     0.0752126
  4.55000019 20.00000000  0.00020761 -0.00362711     0.0000447     0.0000456    -0.0003090     0.0000378    -2.2656385    -2.2587342    -4.5789626     0.1152658
  7.05000019 20.00000000  0.00031623 -0.00358635     0.0000421     0.0000449    -0.0003052     0.0000567    -2.2810466    -2.2603026    -4.5471718     0.1721455
  9.55000019 20.00000000  0.00041806 -0.00353374     0.0000395     0.0000438    -0.0002990     0.0000751    -2.2755630    -2.2433025    -4.4818160     0.2291187
 13.55000019 20.00000000  0.00056162 -0.00341264     0.0000322     0.0000414    -0.0002878     0.0000992    -2.3081642    -2.2388139    -4.3768708     0.3020923
 17.54999924 20.00000000  0.00067567 -0.00326935     0.0000242     0.0000385    -0.0002733     0.0001176    -2.3298879    -2.2227253    -4.2375416     0.3589261
 25.04999924 20.00000000  0.00079531 -0.00296655     0.0000083     0.0000317    -0.0002364     0.0001257    -2.3086160    -2.1328136    -3.8568315     0.3821545
 32.54999924 20.00000000  0.00080030 -0.00266916    -0.0000064     0.0000246    -0.0002074     0.0001189    -2.3376485    -2.1051293    -3.5705785     0.3598585
 42.54999924 20.00000000  0.00069670 -0.00236011    -0.0000149     0.0000164    -0.0001721     0.0000868    -2.2059198    -1.9716025    -3.1528926     0.2658596
 52.54999924 20.00000000  0.00050293 -0.00215051    -0.0000226     0.0000096    -0.0001516     0.0000546    -2.1949525    -1.9539379    -2.9411160     0.1647656
 65.05000305 20.00000000  0.00024442 -0.00202888    -0.0000201     0.0000038    -0.0001404     0.0000244    -2.0848845    -1.9058266    -2.7783122     0.0741910
 77.55000305 20.00000000  0.00000000 -0.00199044    -0.0000190     0.0000000    -0.0001360    -0.0000003    -2.0585773    -1.9161564    -2.7318136    -0.0009473
  0.00000000 27.00000000  0.00000000 -0.00688696     0.0001091     0.0001091    -0.0005043    -0.0000003    -1.9839380    -1.9839380    -4.6130398    -0.0006215
  1.39999998 27.00000000  0.00015237 -0.00687982     0.0001088     0.0001088    -0.0005035     0.0000220    -1.9840063    -1.9839663    -4.6084135     0.0470520
  4.55000019 27.00000000  0.00048820 -0.00681325     0.0001045     0.0001073    -0.0004958     0.0000702    -1.9855693    -1.9737961    -4.5583620     0.1503834
  9.55000019 27.00000000  0.00096889 -0.00657603     0.0000876     0.0001015    -0.0004670     0.0001385    -2.0062941    -1.9470488    -4.3831418     0.2967988
 17.54999924 27.00000000  0.00150224 -0.00595360     0.0000418     0.0000856    -0.0003929     0.0002072    -2.0958481    -1.9083107    -3.9588905     0.4439444
 32.54999924 27.00000000  0.00158960 -0.00458421    -0.0000285     0.0000488    -0.0002542     0.0001683    -2.1266599    -1.7952804    -3.0940776     0.3606933
 52.54999924 27.00000000  0.00085645 -0.00354099    -0.0000413     0.0000163    -0.0001767     0.0000604    -1.9056584    -1.6587827    -2.4857664     0.1294037
 77.55000305 27.00000000  0.00000000 -0.00325304    -0.0000289     0.0000000    -0.0001611    -0.0000004    -1.7522356    -1.6283010    -2.3185169    -0.0008710
  0.00000000 34.00000000  0.00000000 -0.01071606     0.0001674     0.0001674    -0.0005817     0.0000005    -1.3981304    -1.3981304    -4.6086103     0.0010695
  0.69999999 34.00000000  0.00011701 -0.01071248     0.0001669     0.0001672    -0.0005813     0.0000155    -1.4041014    -1.4029398    -4.6105969     0.0332908
  1.39999998 34.00000000  0.00023364 -0.01070246     0.0001668     0.0001669    -0.0005802     0.0000323    -1.3975076    -1.3973305    -4.5991018     0.0692536
  2.97499990 34.00000000  0.00049387 -0.01065114     0.0001631     0.0001660    -0.0005764     0.0000672    -1.4207591    -1.4083157    -4.5901156     0.1439595
  4.55000019 34.00000000  0.00074741 -0.01056788     0.0001591     0.0001643    -0.0005689     0.0001029    -1.4235228    -1.4011784    -4.5434181     0.2204050
  7.05000019 34.00000000  0.00112678 -0.01035663     0.0001442     0.0001598    -0.0005523     0.0001550    -1.5094295    -1.4426572    -4.4946111     0.3322223
  9.55000019 34.00000000  0.00146864 -0.01007128     0.0001264     0.0001538    -0.0005271     0.0002036    -1.5744678    -1.4572395    -4.3754005     0.4362732
 13.55000019 34.00000000  0.00189261 -0.00947135     0.0000884     0.0001397    -0.0004741     0.0002531    -1.7303001    -1.5104040    -4.1408489     0.5423778
 17.54999924 34.00000000  0.00217558 -0.00876955     0.0000479     0.0001240    -0.0004172     0.0002887    -1.8974895    -1.5715422    -3.8908343     0.6186231
 25.04999924 34.00000000  0.00230945 -0.00738553    -0.0000070     0.0000922    -0.0003011     0.0002469    -1.8804359    -1.4553093    -3.1407439     0.5290575
 32.54999924 34.00000000  0.00207054 -0.00622819    -0.0000530     0.0000636    -0.0002180     0.0001843    -2.0052948    -1.5054081    -2.7123920     0.3950023
 42.54999924 34.00000000  0.00155854 -0.00520370    -0.0000530     0.0000366    -0.0001613     0.0001031    -1.7504709    -1.3661397    -2.2143062     0.2208977
 52.54999924 34.00000000  0.00100957 -0.00462382    -0.0000533     0.0000192    -0.0001327     0.0000411    -1.6583936    -1.3474544    -1.9984153     0.0880671
 65.05000305 34.00000000  0.00044508 -0.00432702    -0.0000404     0.0000068    -0.0001237     0.0000160    -1.5208151    -1.3184233    -1.8778749     0.0342054
 77.55000305 34.00000000  0.00000000 -0.00424514    -0.0000308     0.0000000    -0.0001225    -0.0000020    -1.4463048    -1.3141756    -1.8391342    -0.0043843
  0.00000000 38.00000000  0.00000000 -0.01323402     0.0002153     0.0002153    -0.0006853     0.0000000    -1.2611148    -1.2611148    -5.1208392    -0.0000951
  1.39999998 38.00000000  0.00030056 -0.01321280     0.0002146     0.0002147    -0.0006834     0.0000505    -1.2580312    -1.2578746    -5.1069363     0.1081737
  4.55000019 38.00000000  0.00095589 -0.01301679     0.0002025     0.0002101    -0.0006636     0.0001619    -1.2839539    -1.2513340    -4.9956791     0.3469861
  9.55000019 38.00000000  0.00184794 -0.01229792     0.0001533     0.0001935    -0.0005908     0.0003159    -1.4338919    -1.2616464    -4.6227550     0.6768484
 17.54999924 38.00000000  0.00261234 -0.01043597     0.0000303     0.0001489    -0.0004105     0.0003860    -1.8528339    -1.3448336    -3.7420187     0.8272236
 32.54999924 38.00000000  0.00224109 -0.00703701    -0.0000704     0.0000689    -0.0001839     0.0001886    -1.8906450    -1.2939587    -2.3770100     0.4040599
 52.54999924 38.00000000  0.00099924 -0.00511385    -0.0000535     0.0000190    -0.0001124     0.0000256    -1.4875756    -1.1769569    -1.7400410     0.0549461
 77.55000305 38.00000000  0.00000000 -0.00470152    -0.0000294     0.0000000    -0.0001056    -0.0000027    -1.2827001    -1.1568892    -1.6095228    -0.0057131
  0.00000000 42.00000000  0.00000000 -0.01619865     0.0002895     0.0002895    -0.0007827    -0.0000006    -0.5049543    -0.5049543    -5.1003142    -0.0013619
  0.69999999 42.00000000  0.00020244 -0.01619169     0.0002889     0.0002892    -0.0007823     0.0000351    -0.5125113    -0.5111340    -5.1033863     0.0752675
  1.39999998 42.00000000  0.00040444 -0.01616989     0.0002883     0.0002889    -0.0007802     0.0000720    -0.5045273    -0.5020928    -5.0839469     0.1542236
  2.97499990 42.00000000  0.00085071 -0.01606134     0.0002783     0.0002860    -0.0007742     0.0001554    -0.6069268    -0.5741623    -5.1177737     0.3330276
  4.55000019 42.00000000  0.00128111 -0.01587663     0.0002642     0.0002816    -0.0007591     0.0002338    -0.6969041    -0.6223236    -5.0823310     0.5010141
  7.05000019 42.00000000  0.00188594 -0.01542464     0.0002238     0.0002675    -0.0007196     0.0003536    -0.9978360    -0.8103954    -5.0407865     0.7577357
  9.55000019 42.00000000  0.00239997 -0.01479734     0.0001774     0.0002513    -0.0006645     0.0004595    -1.2606373    -0.9440658    -4.8691135     0.9845697
 13.55000019 42.00000000  0.00290688 -0.01348450     0.0000860     0.0002145    -0.0005298     0.0005058    -1.5965878    -1.0458670    -4.2360247     1.0837689
 17.54999924 42.00000000  0.00308819 -0.01205348    -0.0000011     0.0001760    -0.0004065     0.0005100    -1.9896269    -1.2309642    -3.7272667     1.0928084
 25.04999924 42.00000000  0.00286282 -0.00956157    -0.0000534     0.0001143    -0.0002433     0.0003419    -1.7914834    -1.0730209    -2.6053340     0.7326992
 32.54999924 42.00000000  0.00228784 -0.00769908    -0.0000919     0.0000703    -0.0001480     0.0001911    -1.8472056    -1.1521922    -2.0875797     0.4094170
 42.54999924 42.00000000  0.00152589 -0.00626210    -0.0000686     0.0000359    -0.0001044     0.0000796    -1.4691854    -1.0215112    -1.6225090     0.1705543
 52.54999924 42.00000000  0.00091592 -0.00552279    -0.0000509     0.0000174    -0.0000913     0.0000078    -1.2874506    -0.9948041    -1.4610012     0.0168165
 65.05000305 42.00000000  0.00038499 -0.00517439    -0.0000366     0.0000059    -0.0000876     0.0000013    -1.1712377    -0.9888587    -1.3896852     0.0028634
 77.55000305 42.00000000  0.00000000 -0.00509006    -0.0000250     0.0000000    -0.0000887    -0.0000038    -1.0810470    -0.9740666    -1.3541194    -0.0081777
  0.00000000 44.50000000  0.00000000 -0.01841372     0.0003793     0.0003793    -0.0010036    -0.0000009    -0.4736873    -0.4736873    -6.4005493    -0.0018777
  1.39999998 44.50000000  0.00052597 -0.01837352     0.0003760     0.0003757    -0.0009976     0.0001262    -0.4961189    -0.4974811    -6.3829633     0.2704862
  4.55000019 44.50000000  0.00164007 -0.01798922     0.0003333     0.0003605    -0.0009382     0.0003978    -0.6670499    -0.5505498    -6.1161593     0.8525096
  9.55000019 44.50000000  0.00293221 -0.01654735     0.0001733     0.0003070    -0.0007299     0.0006665    -1.3958326    -0.8228102    -5.2667600     1.4281098
 17.54999924 44.50000000  0.00345612 -0.01304076    -0.0000461     0.0001969    -0.0003751     0.0005941    -2.1200718    -1.0783784    -3.5298276     1.2731654
 32.54999924 44.50000000  0.00224738 -0.00803863    -0.0001002     0.0000690    -0.0001229     0.0001733    -1.7502086    -1.0246935    -1.8471862     0.3714004
 52.54999924 44.50000000  0.00082251 -0.00573651    -0.0000466     0.0000157    -0.0000804    -0.0000043    -1.1539946    -0.8871667    -1.2987021    -0.0091891
 77.55000305 44.50000000  0.00000000 -0.00530086    -0.0000215     0.0000000    -0.0000799    -0.0000044    -0.9611903    -0.8691861    -1.2117750    -0.0094201
  0.00000000 47.00000000  0.00000000 -0.02121665     0.0005468     0.0005468    -0.0014909     0.0000040    -0.2567440    -0.2567440    -6.5360654     0.0064537
  0.69999999 47.00000000  0.00038040 -0.02120054     0.0005401     0.0005434    -0.0014861     0.0001506    -0.3148923    -0.3042168    -6.5592353     0.2145252
  1.39999998 47.00000000  0.00075615 -0.02115783     0.0005321     0.0005401    -0.0014684     0.0003033    -0.3251175    -0.2994656    -6.4997680     0.4338166
  2.97499990 47.00000000  0.00155868 -0.02093257     0.0004883     0.0005239    -0.0014529     0.0006389    -0.6862150    -0.5716941    -6.6372047     0.9039983
  4.55000019 47.00000000  0.00229429 -0.02056757     0.0004290     0.0005042    -0.0013905     0.0009178    -0.9907177    -0.7487796    -6.5539342     1.3141681
  7.05000019 47.00000000  0.00316823 -0.01964078     0.0002870     0.0004494    -0.0012184     0.0012345    -1.6356738    -1.1137404    -6.2043614     1.7473240
  9.55000019 47.00000000  0.00372937 -0.01844676     0.0001490     0.0003905    -0.0010408     0.0014002    -2.2058175    -1.4293807    -5.7608681     1.9932765
 13.55000019 47.00000000  0.00402232 -0.01618498     0.0000105     0.0002969    -0.0007070     0.0012395    -2.1994761    -1.2789648    -4.3374996     1.7773011
 17.54999924 47.00000000  0.00381312 -0.01392885    -0.0001109     0.0002173    -0.0004832     0.0010207    -2.4625787    -1.4076136    -3.5007619     1.4578801
 25.04999924 47.00000000  0.00298961 -0.01059247    -0.0001128     0.0001193    -0.0002502     0.0005644    -1.7640534    -1.0178978    -2.1233316     0.8084491
 32.54999924 47.00000000  0.00212125 -0.00831344    -0.0001096     0.0000652    -0.0001600     0.0002163    -1.5318144    -0.9699181    -1.6261304     0.3126977
 42.54999924 47.00000000  0.00126373 -0.00669641    -0.0000710     0.0000297    -0.0001186     0.0000726    -1.1495363    -0.8258927    -1.2493196     0.1015440
 52.54999924 47.00000000  0.00070146 -0.00592466    -0.0000404     0.0000133    -0.0001121    -0.0000305    -0.9339962    -0.7613709    -1.1196014    -0.0415111
 65.05000305 47.00000000  0.00028079 -0.00556646    -0.0000281     0.0000043    -0.0001123    -0.0000120    -0.8716982    -0.7676358    -1.0959517    -0.0177088
 77.55000305 47.00000000  0.00000000 -0.00548974    -0.0000169     0.0000000    -0.0001110    -0.0000051    -0.7910381    -0.7368217    -1.0510161    -0.0082319
  0.00000000 48.50000000  0.00000000 -0.02451395     0.0009823     0.0009823    -0.0026534    -0.0000029    -0.8473273    -0.8473273    -8.6381671    -0.0031449
  1.39999998 48.50000000  0.00134991 -0.02439383     0.0009638     0.0009642    -0.0026078     0.0006281    -0.8479251    -0.8470082    -8.5012503     0.6729567
  4.55000019 48.50000000  0.00393144 -0.02347176     0.0006501     0.0008641    -0.0022158     0.0017437    -1.6138984    -1.1554643    -7.7551578     1.8682318
  9.55000019 48.50000000  0.00576420 -0.02042917     0.0000560     0.0006036    -0.0013513     0.0021251    -2.8448073    -1.6713260    -5.8603691     2.2769217
 17.54999924 48.50000000  0.00493759 -0.01482214    -0.0002169     0.0002813    -0.0005601     0.0012875    -2.5885700    -1.5209945    -3.3239964     1.3794450
 32.54999924 48.50000000  0.00217441 -0.00862055    -0.0001376     0.0000668    -0.0001865     0.0002314    -1.3973713    -0.9593973    -1.5021380     0.2478956
 52.54999924 48.50000000  0.00057145 -0.00614577    -0.0000400     0.0000109    -0.0001408    -0.0000553    -0.8137693    -0.7048310    -1.0298656    -0.0592562
 77.55000305 48.50000000  0.00000000 -0.00570864    -0.0000137     0.0000000    -0.0001410    -0.0000043    -0.6920757    -0.6627515    -0.9648030    -0.0045737
  0.00000000 50.00000000  0.00000000 -0.02917696     0.0015928     0.0015928    -0.0019616     0.0000004     1.5906702     1.5906702    -9.5874264     0.0025230
  0.69999999 50.00000000  0.00110467 -0.02912784     0.0015633     0.0015781    -0.0019561     0.0002566     1.4834643     1.5050486    -9.7168702     0.5167375
  1.39999998 50.00000000  0.00218869 -0.02898110     0.0015250     0.0015633    -0.0019299     0.0005183     1.3983466     1.4545353    -9.5134495     1.0257483
  2.97499990 50.00000000  0.00435495 -0.02828977     0.0012347     0.0014638    -0.0017594     0.0009624     0.8224563     1.1577464    -9.1490948     1.9016351
  4.55000019 50.00000000  0.00607815 -0.02721498     0.0008699     0.0013359    -0.0015415     0.0013544     0.0884577     0.7704201    -8.5562050     2.8177106
  7.05000019 50.00000000  0.00751023 -0.02498056     0.0003593     0.0010653    -0.0011690     0.0014194    -0.8863043     0.1468422    -7.2646322     2.7432431
  9.55000019 50.00000000  0.00787487 -0.02250067    -0.0000987     0.0008246    -0.0008073     0.0013678    -1.6227532    -0.2714348    -6.0292015     2.8067671
 13.55000019 50.00000000  0.00710757 -0.01875910    -0.0002538     0.0005245    -0.0004940     0.0010094    -1.6345527    -0.4954477    -4.2353705     1.9314840
 17.54999924 50.00000000  0.00584453 -0.01560902    -0.0003366     0.0003330    -0.0002947     0.0006745    -1.5705009    -0.5904989    -3.1597483     1.3252469
 25.04999924 50.00000000  0.00381168 -0.01141201    -0.0002466     0.0001522    -0.0001378     0.0003453    -1.0502273    -0.4666120    -1.8112909     0.6948992
 32.54999924 50.00000000  0.00214531 -0.00887287    -0.0001593     0.0000659    -0.0000956     0.0000935    -0.7680510    -0.4384176    -1.3519607     0.1409846
 42.54999924 50.00000000  0.00111120 -0.00712730    -0.0000859     0.0000261    -0.0000754     0.0000258    -0.5181674    -0.3542004    -1.0256745     0.0678426
 52.54999924 50.00000000  0.00042688 -0.00634708    -0.0000376     0.0000081    -0.0000784    -0.0000394    -0.3993390    -0.3324428    -0.9399028    -0.0985387
 65.05000305 50.00000000  0.00016872 -0.00599867    -0.0000171     0.0000026    -0.0000807    -0.0000132    -0.3469277    -0.3181423    -0.9154264    -0.0219599
 77.55000305 50.00000000  0.00000000 -0.00591262    -0.0000099     0.0000000    -0.0000795    -0.0000036    -0.3230652    -0.3085474    -0.8835233    -0.0212867
  0.00000000 50.09999847  0.00000000 -0.02921304     0.0015816     0.0015816    -0.0003625    -0.0000016     1.3766666     1.3766666   -10.0275703    -0.0167898
  1.39999998 50.09999847  0.00216863 -0.02901645     0.0015103     0.0015490    -0.0003557     0.0000997     1.3140485     1.3444243    -9.8609028     1.0685461
  4.55000019 50.09999847  0.00602407 -0.02724586     0.0008612     0.0013240    -0.0003099     0.0002864     0.7436214     1.1065177    -8.7989938     3.0694031
  9.55000019 50.09999847  0.00780014 -0.02252105    -0.0000986     0.0008168    -0.0002037     0.0002794    -0.0993470     0.6184356    -6.0987845     2.9945878
 17.54999924 50.09999847  0.00578781 -0.01561904    -0.0003335     0.0003298    -0.0000999     0.0001250    -0.3054668     0.2146357    -3.1461887     1.3399264
 32.54999924 50.09999847  0.00212361 -0.00887698    -0.0001577     0.0000652    -0.0000409     0.0000084    -0.1501800     0.0246691    -1.3284406     0.0898143
 52.54999924 50.09999847  0.00042230 -0.00635000    -0.0000372     0.0000080    -0.0000290    -0.0000117    -0.0445231    -0.0090744    -0.9252415    -0.1253816
 77.55000305 50.09999847  0.00000000 -0.00591539    -0.0000098     0.0000000    -0.0000277    -0.0000036    -0.0206763    -0.0129924    -0.8748551    -0.0385842
  0.00000000 50.20000076  0.00000000 -0.02924945     0.0015703     0.0015703    -0.0003706    -0.0000037     1.3621733     1.3621733   -10.2939221    -0.0391480
  0.69999999 50.20000076  0.00108675 -0.02920143     0.0015347     0.0015525    -0.0003705     0.0000486     1.3293479     1.3432935   -10.3145139     0.5211840
  1.39999998 50.20000076  0.00214861 -0.02905225     0.0014956     0.0015347    -0.0003595     0.0001042     1.2981885     1.3288411    -9.9938922     1.1170950
  2.97499990 50.20000076  0.00427900 -0.02835767     0.0012132     0.0014383    -0.0003428     0.0001845     1.0486695     1.2252367    -9.6335197     1.9777920
  4.55000019 50.20000076  0.00597005 -0.02727695     0.0008525     0.0013121    -0.0003123     0.0002904     0.7338247     1.0942302    -8.8843518     3.1125341
  7.05000019 50.20000076  0.00737236 -0.02503047     0.0003511     0.0010457    -0.0002501     0.0002582     0.2962117     0.8409427    -7.2632925     2.7677734
  9.55000019 50.20000076  0.00772535 -0.02254141    -0.0000984     0.0008089    -0.0002036     0.0002813    -0.0999014     0.6116175    -6.0993804     3.0149012
 13.55000019 50.20000076  0.00697041 -0.01878617    -0.0002493     0.0005144    -0.0001352     0.0001777    -0.2298294     0.3690458    -4.1402747     1.9042709
 17.54999924 50.20000076  0.00573103 -0.01562900    -0.0003303     0.0003266    -0.0000993     0.0001249    -0.3027352     0.2123709    -3.1259587     1.3388009
 25.04999924 50.20000076  0.00373527 -0.01142315    -0.0002419     0.0001491    -0.0000554     0.0000676    -0.2225823     0.0840697    -1.7852939     0.7251130
 32.54999924 50.20000076  0.00210189 -0.00888105    -0.0001561     0.0000646    -0.0000405     0.0000080    -0.1486384     0.0244369    -1.3132878     0.0861334
 42.54999924 50.20000076  0.00108759 -0.00713363    -0.0000842     0.0000256    -0.0000314     0.0000084    -0.0852070     0.0008695    -1.0136228     0.0899884
 52.54999924 50.20000076  0.00041772 -0.00635288    -0.0000368     0.0000079    -0.0000287    -0.0000118    -0.0440484    -0.0089950    -0.9166647    -0.1268156
 65.05000305 50.20000076  0.00016492 -0.00600440    -0.0000167     0.0000025    -0.0000284    -0.0000016    -0.0268427    -0.0117521    -0.9012743    -0.0172193
 77.55000305 50.20000076  0.00000000 -0.00591815    -0.0000097     0.0000000    -0.0000274    -0.0000036    -0.0204747    -0.0128857    -0.8679289    -0.0384644
  0.00000000 50.85000229  0.00000000 -0.02950195     0.0014845     0.0014845    -0.0004014    -0.0000009     1.2654340     1.2654340   -11.3369571    -0.0095737
  1.39999998 50.85000229  0.00202173 -0.02929551     0.0014074     0.0014441    -0.0003896     0.0001147     1.1992364     1.2279740   -11.0187673     1.2292118
  4.55000019 50.85000229  0.00561978 -0.02748488     0.0007964     0.0012351    -0.0003271     0.0003081     0.6709939     1.0149806    -9.4099166     3.3028084
  9.55000019 50.85000229  0.00723827 -0.02267330    -0.0000976     0.0007579    -0.0002021     0.0002895    -0.1032437     0.5676200    -6.0729119     3.1029988
 17.54999924 50.85000229  0.00536040 -0.01569241    -0.0003098     0.0003054    -0.0000960     0.0001253    -0.2852820     0.1971578    -3.0251837     1.3425570
 32.54999924 50.85000229  0.00196005 -0.00890657    -0.0001458     0.0000602    -0.0000382     0.0000073    -0.1389602     0.0225634    -1.2398159     0.0785615
 52.54999924 50.85000229  0.00038779 -0.00637100    -0.0000341     0.0000074    -0.0000271    -0.0000121    -0.0410070    -0.0085154    -0.8632707    -0.1295145
 77.55000305 50.85000229  0.00000000 -0.00593548    -0.0000089     0.0000000    -0.0000259    -0.0000035    -0.0191091    -0.0121312    -0.8184393    -0.0377431
  0.00000000 51.50000000  0.00000000 -0.02977121     0.0013987     0.0013987    -0.0004294    -0.0000004     1.1699755     1.1699755   -12.2948416    -0.0045409
  0.69999999 51.50000000  0.00096330 -0.02971825     0.0013536     0.0013761    -0.0004260     0.0000556     1.1297578     1.1474610   -12.2163054     0.5954589
  1.39999998 51.50000000  0.00189500 -0.02955875     0.0013191     0.0013536    -0.0004183     0.0001257     1.1007949     1.1277991   -11.9994535     1.3474483
  2.97499990 51.50000000  0.00378563 -0.02883285     0.0010710     0.0012725    -0.0003890     0.0002085     0.8882800     1.0463061   -11.2224146     2.2345706
  4.55000019 51.50000000  0.00526852 -0.02770222     0.0007400     0.0011579    -0.0003433     0.0003287     0.6072357     0.9349323    -9.9769995     3.5234991
  7.05000019 51.50000000  0.00647341 -0.02536350     0.0002959     0.0009182    -0.0002613     0.0002848     0.2310879     0.7190565    -7.6945686     3.0526528
  9.55000019 51.50000000  0.00674820 -0.02280414    -0.0000969     0.0007066    -0.0002013     0.0002987    -0.1070726     0.5230154    -6.0694315     3.2019357
 13.55000019 51.50000000  0.00607261 -0.01895912    -0.0002201     0.0004482    -0.0001307     0.0001864    -0.2084443     0.3155837    -4.0159438     1.9977639
 17.54999924 51.50000000  0.00498740 -0.01575387    -0.0002892     0.0002842    -0.0000928     0.0001255    -0.2677509     0.1818386    -2.9242529     1.3447150
 25.04999924 51.50000000  0.00323572 -0.01149202    -0.0002113     0.0001292    -0.0000505     0.0000686    -0.1954392     0.0715587    -1.6270036     0.7357579
 32.54999924 51.50000000  0.00181765 -0.00893071    -0.0001353     0.0000558    -0.0000359     0.0000065    -0.1292006     0.0207015    -1.1648858     0.0692053
 42.54999924 51.50000000  0.00093365 -0.00717203    -0.0000730     0.0000219    -0.0000277     0.0000084    -0.0740983     0.0003475    -0.8944847     0.0898078
 52.54999924 51.50000000  0.00035777 -0.00638805    -0.0000313     0.0000068    -0.0000254    -0.0000124    -0.0379486    -0.0080309    -0.8094993    -0.1328550
 65.05000305 51.50000000  0.00014017 -0.00603926    -0.0000143     0.0000022    -0.0000252    -0.0000016    -0.0233554    -0.0104437    -0.7981414    -0.0173563
 77.55000305 51.50000000  0.00000000 -0.00595179    -0.0000081     0.0000000    -0.0000243    -0.0000035    -0.0177400    -0.0113757    -0.7689016    -0.0370411
  0.00000000 52.15000153  0.00000000 -0.03006217     0.0013049     0.0013049    -0.0004636     0.0000020     1.0639452     1.0639452   -13.4526435     0.0218079
  1.39999998 52.15000153  0.00177015 -0.02984060     0.0012334     0.0012644    -0.0004510     0.0001338     1.0030331     1.0272995   -13.1046144     1.4345624
  4.55000019 52.15000153  0.00491433 -0.02793156     0.0006843     0.0010801    -0.0003607     0.0003437     0.5435069     0.8538468   -10.5828990     3.6842061
  9.55000019 52.15000153  0.00625492 -0.02293480    -0.0000958     0.0006550    -0.0002000     0.0003056    -0.1103279     0.4783732    -6.0504021     3.2760930
 17.54999924 52.15000153  0.00461156 -0.01581307    -0.0002683     0.0002628    -0.0000896     0.0001256    -0.2499743     0.1664304    -2.8212194     1.3463940
 32.54999924 52.15000153  0.00167419 -0.00895325    -0.0001249     0.0000514    -0.0000336     0.0000057    -0.1194281     0.0188123    -1.0899808     0.0607581
 52.54999924 52.15000153  0.00032747 -0.00640399    -0.0000287     0.0000062    -0.0000237    -0.0000127    -0.0349083    -0.0075529    -0.7557456    -0.1358700