 TITLE ="GEORGIA TECH TEST PIT GRID (LINEAR ELASTIC/ANISOTROPIC RUN)                     "
 VARIABLES = "R","Z","DISP_R","DISP_Z","EPSR","EPSTH","EPSZ","EPSRZ","SIGMAR","SIGMATH","SIGMAZ","SIGMARZ"
 ZONE T="GEOMETRY & DISP", N=  383, E=  112, F=FEPOINT, ET=QUADRILATERAL
  0.00000000  0.00000000  0.00000000  0.00000000     0.0000000     0.0000000    -0.0003301     0.0000000    -3.3477368    -3.3477368    -5.0216052     0.0000000
  0.69999999  0.00000000  0.00000000  0.00000000     0.0000000     0.0000000    -0.0003301     0.0000031    -3.3479001    -3.3479001    -5.0218501     0.0078700
  1.39999998  0.00000000  0.00000000  0.00000000     0.0000000     0.0000000    -0.0003300     0.0000062    -3.3471559    -3.3471559    -5.0207339     0.0157302
  2.97499990  0.00000000  0.00000000  0.00000000     0.0000000     0.0000000    -0.0003299     0.0000131    -3.3459201    -3.3459201    -5.0188801     0.0333180
  4.55000019  0.00000000  0.00000000  0.00000000     0.0000000     0.0000000    -0.0003294     0.0000200    -3.3401651    -3.3401651    -5.0102476     0.0506845
  7.05000019  0.00000000  0.00000000  0.00000000     0.0000000     0.0000000    -0.0003285     0.0000305    -3.3314249    -3.3314249    -4.9971373     0.0772776
  9.55000019  0.00000000  0.00000000  0.00000000     0.0000000     0.0000000    -0.0003266     0.0000405    -3.3125483    -3.3125483    -4.9688224     0.1026507
 13.55000019  0.00000000  0.00000000  0.00000000     0.0000000     0.0000000    -0.0003247     0.0000546    -3.2926132    -3.2926132    -4.9389198     0.1383660
 17.54999924  0.00000000  0.00000000  0.00000000     0.0000000     0.0000000    -0.0003207     0.0000666    -3.2527404    -3.2527404    -4.8791106     0.1688345
 25.04999924  0.00000000  0.00000000  0.00000000     0.0000000     0.0000000    -0.0003122     0.0000809    -3.1660686    -3.1660686    -4.7491029     0.2049945
 32.54999924  0.00000000  0.00000000  0.00000000     0.0000000     0.0000000    -0.0003037     0.0000868    -3.0802239    -3.0802239    -4.6203358     0.2201685
 42.54999924  0.00000000  0.00000000  0.00000000     0.0000000     0.0000000    -0.0002882     0.0000771    -2.9229834    -2.9229834    -4.3844750     0.1953867
 52.54999924  0.00000000  0.00000000  0.00000000     0.0000000     0.0000000    -0.0002807     0.0000601    -2.8463791    -2.8463791    -4.2695686     0.1524322
 65.05000305  0.00000000  0.00000000  0.00000000     0.0000000     0.0000000    -0.0002710     0.0000298    -2.7480951    -2.7480951    -4.1221426     0.0756035
 77.55000305  0.00000000  0.00000000  0.00000000     0.0000000     0.0000000    -0.0002696     0.0000000    -2.7338301    -2.7338301    -4.1007451     0.0000000
  0.00000000 10.00000000  0.00000000 -0.00341779     0.0000395     0.0000395    -0.0003535    -0.0000003    -2.5821727    -2.5821727    -4.5749006    -0.0007666
  1.39999998 10.00000000  0.00005527 -0.00341642     0.0000394     0.0000395    -0.0003532     0.0000067    -2.5818831    -2.5817196    -4.5730705     0.0170047
  4.55000019 10.00000000  0.00017786 -0.00340291     0.0000383     0.0000391    -0.0003512     0.0000222    -2.5827600    -2.5787935    -4.5579596     0.0561684
  9.55000019 10.00000000  0.00035949 -0.00335278     0.0000340     0.0000376    -0.0003439     0.0000442    -2.5881142    -2.5698918    -4.5046905     0.1121665
 17.54999924 10.00000000  0.00058768 -0.00322038     0.0000222     0.0000335    -0.0003233     0.0000725    -2.6010844    -2.5440982    -4.3534505     0.1836966
 32.54999924 10.00000000  0.00073932 -0.00289865    -0.0000029     0.0000227    -0.0002760     0.0000841    -2.6134444    -2.4833673    -3.9980782     0.2131498
 52.54999924 10.00000000  0.00049693 -0.00256261    -0.0000198     0.0000095    -0.0002319     0.0000497    -2.5562456    -2.4080194    -3.6316297     0.1259561
 77.55000305 10.00000000  0.00000000 -0.00242878    -0.0000195     0.0000000    -0.0002162    -0.0000013    -2.4889164    -2.3900848    -3.4862957    -0.0032314
  0.00000000 20.00000000  0.00000000 -0.00706906     0.0000694     0.0000694    -0.0003699     0.0000005    -1.9924073    -1.9924073    -4.2201872     0.0013403
  0.69999999 20.00000000  0.00004854 -0.00706779     0.0000693     0.0000693    -0.0003699     0.0000050    -1.9938464    -1.9935644    -4.2206540     0.0127925
  1.39999998 20.00000000  0.00009700 -0.00706474     0.0000692     0.0000693    -0.0003696     0.0000103    -1.9927087    -1.9923103    -4.2176694     0.0260986
  2.97499990 20.00000000  0.00020517 -0.00704906     0.0000681     0.0000690    -0.0003684     0.0000211    -2.0007907    -1.9965484    -4.2145439     0.0535073
  4.55000019 20.00000000  0.00031160 -0.00702448     0.0000671     0.0000685    -0.0003663     0.0000324    -1.9997006    -1.9926667    -4.1973853     0.0821182
  7.05000019 20.00000000  0.00047472 -0.00696143     0.0000633     0.0000673    -0.0003620     0.0000484    -2.0245767    -2.0042294    -4.1810546     0.1226286
  9.55000019 20.00000000  0.00062822 -0.00687840     0.0000593     0.0000658    -0.0003553     0.0000642    -2.0339550    -2.0012171    -4.1365609     0.1627316
 13.55000019 20.00000000  0.00084424 -0.00669224     0.0000488     0.0000623    -0.0003420     0.0000851    -2.0939745    -2.0256458    -4.0759042     0.2157820
 17.54999924 20.00000000  0.00101886 -0.00646676     0.0000370     0.0000581    -0.0003257     0.0001014    -2.1515098    -2.0447397    -3.9906687     0.2569904
 25.04999924 20.00000000  0.00120245 -0.00599261     0.0000134     0.0000480    -0.0002850     0.0001072    -2.1989866    -2.0237407    -3.7122796     0.2718055
 32.54999924 20.00000000  0.00122049 -0.00552008    -0.0000080     0.0000375    -0.0002503     0.0001021    -2.2807080    -2.0498686    -3.5094192     0.2589490
 42.54999924 20.00000000  0.00107456 -0.00499906    -0.0000218     0.0000253    -0.0002109     0.0000748    -2.2132394    -1.9748417    -3.1720603     0.1897331
 52.54999924 20.00000000  0.00078527 -0.00463706    -0.0000341     0.0000149    -0.0001840     0.0000474    -2.2337986    -1.9849102    -2.9936845     0.1200945
 65.05000305 20.00000000  0.00038780 -0.00439753    -0.0000314     0.0000060    -0.0001693     0.0000215    -2.1344191    -1.9449133    -2.8336683     0.0544664
 77.55000305 20.00000000  0.00000000 -0.00432369    -0.0000306     0.0000000    -0.0001634    -0.0000007    -2.1230488    -1.9676934    -2.7961848    -0.0018280
  0.00000000 27.00000000  0.00000000 -0.00978589     0.0000980     0.0000980    -0.0004131    -0.0000002    -1.7048796    -1.7048796    -4.2968083    -0.0005866
  1.39999998 27.00000000  0.00013685 -0.00977815     0.0000978     0.0000977    -0.0004125     0.0000180    -1.7041202    -1.7045102    -4.2919466     0.0456894
  4.55000019 27.00000000  0.00043892 -0.00970501     0.0000942     0.0000965    -0.0004063     0.0000575    -1.7089049    -1.6976310    -4.2471949     0.1458405
  9.55000019 27.00000000  0.00087333 -0.00944346     0.0000799     0.0000914    -0.0003834     0.0001130    -1.7457036    -1.6870853    -4.0949931     0.2865661
 17.54999924 27.00000000  0.00136888 -0.00874650     0.0000416     0.0000780    -0.0003259     0.0001677    -1.8806698    -1.6962469    -3.7442302     0.4251636
 32.54999924 27.00000000  0.00152010 -0.00716422    -0.0000206     0.0000467    -0.0002173     0.0001343    -2.0446472    -1.7031616    -3.0420752     0.3404617
 52.54999924 27.00000000  0.00089954 -0.00581400    -0.0000400     0.0000171    -0.0001513     0.0000482    -1.9699824    -1.6801579    -2.5342103     0.1222834
 77.55000305 27.00000000  0.00000000 -0.00536796    -0.0000327     0.0000000    -0.0001344    -0.0000006    -1.8607886    -1.6948099    -2.3762362    -0.0014971
  0.00000000 34.00000000  0.00000000 -0.01285306     0.0001403     0.0001403    -0.0004594     0.0000003    -1.1022734    -1.1022734    -4.1431337     0.0008270
  0.69999999 34.00000000  0.00009805 -0.01284970     0.0001399     0.0001401    -0.0004591     0.0000143    -1.1076189    -1.1065587    -4.1447906     0.0363158
  1.39999998 34.00000000  0.00019581 -0.01284005     0.0001397     0.0001399    -0.0004582     0.0000295    -1.1036740    -1.1026086    -4.1351494     0.0748849
  2.97499990 34.00000000  0.00041340 -0.01279199     0.0001364     0.0001390    -0.0004552     0.0000614    -1.1315967    -1.1187848    -4.1315113     0.1555961
  4.55000019 34.00000000  0.00062557 -0.01271318     0.0001328     0.0001375    -0.0004491     0.0000940    -1.1401168    -1.1162530    -4.0905885     0.2383857
  7.05000019 34.00000000  0.00094186 -0.01251453     0.0001205     0.0001336    -0.0004364     0.0001408    -1.2383940    -1.1717909    -4.0620983     0.3569116
  9.55000019 34.00000000  0.00122788 -0.01224624     0.0001049     0.0001286    -0.0004169     0.0001838    -1.3277005    -1.2076956    -3.9734080     0.4661081
 13.55000019 34.00000000  0.00157870 -0.01168590     0.0000740     0.0001165    -0.0003757     0.0002266    -1.5034715    -1.2876658    -3.7834435     0.5745365
 17.54999924 34.00000000  0.00181948 -0.01102916     0.0000408     0.0001037    -0.0003331     0.0002582    -1.7057075    -1.3869290    -3.6015750     0.6547395
 25.04999924 34.00000000  0.00193986 -0.00971105    -0.0000031     0.0000774    -0.0002453     0.0002223    -1.7488029    -1.3405424    -2.9769125     0.5636064
 32.54999924 34.00000000  0.00177338 -0.00856295    -0.0000391     0.0000545    -0.0001845     0.0001717    -1.9129693    -1.4385040    -2.6502034     0.4353684
 42.54999924 34.00000000  0.00137832 -0.00745836    -0.0000422     0.0000324    -0.0001408     0.0001005    -1.7408955    -1.3628763    -2.2411912     0.2547003
 52.54999924 34.00000000  0.00093025 -0.00675541    -0.0000452     0.0000177    -0.0001171     0.0000463    -1.6960429    -1.3771014    -2.0608797     0.1172716
 65.05000305 34.00000000  0.00042935 -0.00633269    -0.0000372     0.0000066    -0.0001070     0.0000190    -1.5840832    -1.3619342    -1.9378905     0.0482121
 77.55000305 34.00000000  0.00000000 -0.00620508    -0.0000315     0.0000000    -0.0001045    -0.0000016    -1.5386726    -1.3790181    -1.9088727    -0.0040458
  0.00000000 38.00000000  0.00000000 -0.01489034     0.0001841     0.0001841    -0.0005630     0.0000000    -1.0428630    -1.0428630    -4.8311763     0.0000261
  1.39999998 38.00000000  0.00025678 -0.01487067     0.0001834     0.0001834    -0.0005613     0.0000474    -1.0414894    -1.0415382    -4.8175486     0.1201982
  4.55000019 38.00000000  0.00081503 -0.01468923     0.0001717     0.0001791    -0.0005430     0.0001506    -1.0774951    -1.0400804    -4.7017691     0.3819319
  9.55000019 38.00000000  0.00156478 -0.01403578     0.0001269     0.0001639    -0.0004784     0.0002887    -1.2597095    -1.0724243    -4.3293106     0.7320179
 17.54999924 38.00000000  0.00219003 -0.01236789     0.0000235     0.0001248    -0.0003295     0.0003459    -1.7182214    -1.2047846    -3.5084151     0.8770561
 32.54999924 38.00000000  0.00189544 -0.00924665    -0.0000550     0.0000582    -0.0001552     0.0001804    -1.8194480    -1.2454341    -2.3276036     0.4572818
 52.54999924 38.00000000  0.00090125 -0.00718691    -0.0000449     0.0000172    -0.0000991     0.0000388    -1.5137565    -1.1993045    -1.7888793     0.0983114
 77.55000305 38.00000000  0.00000000 -0.00659351    -0.0000290     0.0000000    -0.0000900    -0.0000018    -1.3536382    -1.2067485    -1.6632329    -0.0046245
  0.00000000 42.00000000  0.00000000 -0.01735723     0.0002563     0.0002563    -0.0006591     0.0000003    -0.1849485    -0.1849485    -4.8269097     0.0007272
  0.69999999 42.00000000  0.00017913 -0.01735034     0.0002554     0.0002559    -0.0006587     0.0000342    -0.1990150    -0.1967354    -4.8343319     0.0867161
  1.39999998 42.00000000  0.00035762 -0.01733007     0.0002548     0.0002554    -0.0006564     0.0000703    -0.1893046    -0.1862816    -4.8099292     0.1781463
  2.97499990 42.00000000  0.00075137 -0.01722759     0.0002448     0.0002526    -0.0006500     0.0001494    -0.3056229    -0.2664716    -4.8428817     0.3786567
  4.55000019 42.00000000  0.00112887 -0.01705716     0.0002311     0.0002481    -0.0006340     0.0002238    -0.3974236    -0.3112892    -4.7840134     0.5675242
  7.05000019 42.00000000  0.00165527 -0.01664105     0.0001934     0.0002348    -0.0005968     0.0003321    -0.7292368    -0.5194266    -4.7362660     0.8420304
  9.55000019 42.00000000  0.00209594 -0.01607377     0.0001493     0.0002195    -0.0005469     0.0004251    -1.0497382    -0.6938496    -4.5799253     1.0778828
 13.55000019 42.00000000  0.00251304 -0.01491291     0.0000691     0.0001855    -0.0004285     0.0004626    -1.4136077    -0.8235779    -3.9368675     1.1727849
 17.54999924 42.00000000  0.00264877 -0.01366527    -0.0000054     0.0001509    -0.0003277     0.0004610    -1.8745860    -1.0819932    -3.5089746     1.1686821
 25.04999924 42.00000000  0.00243972 -0.01148182    -0.0000462     0.0000974    -0.0001967     0.0003167    -1.7102558    -0.9820048    -2.4732591     0.8029609
 32.54999924 42.00000000  0.00195540 -0.00980442    -0.0000754     0.0000601    -0.0001247     0.0001898    -1.8028706    -1.1158690    -2.0529585     0.4812478
 42.54999924 42.00000000  0.00133414 -0.00838502    -0.0000564     0.0000314    -0.0000918     0.0000934    -1.4701883    -1.0254147    -1.6498142     0.2369253
 52.54999924 42.00000000  0.00082820 -0.00754837    -0.0000432     0.0000158    -0.0000809     0.0000290    -1.3177578    -1.0188016    -1.5089524     0.0734667
 65.05000305 42.00000000  0.00036136 -0.00706488    -0.0000331     0.0000056    -0.0000759     0.0000114    -1.2173686    -1.0212167    -1.4342624     0.0288173
 77.55000305 42.00000000  0.00000000 -0.00692527    -0.0000247     0.0000000    -0.0000757    -0.0000026    -1.1437030    -1.0185106    -1.4025736    -0.0065581
  0.00000000 44.50000000  0.00000000 -0.01925645     0.0003431     0.0003431    -0.0008716    -0.0000014    -0.1400274    -0.1400274    -6.2994995    -0.0034523
  1.39999998 44.50000000  0.00047582 -0.01921714     0.0003402     0.0003399    -0.0008653     0.0001202    -0.1536739    -0.1553176    -6.2665251     0.3048022
  4.55000019 44.50000000  0.00147981 -0.01884998     0.0002980     0.0003252    -0.0008073     0.0003780    -0.3557621    -0.2176063    -5.9603374     0.9582555
  9.55000019 44.50000000  0.00262305 -0.01753542     0.0001498     0.0002747    -0.0006161     0.0006261    -1.1840109    -0.5506739    -5.0672989     1.5873812
 17.54999924 44.50000000  0.00303364 -0.01446363    -0.0000476     0.0001729    -0.0003025     0.0005437    -2.0383126    -0.9205119    -3.3307459     1.3784970
 32.54999924 44.50000000  0.00195464 -0.01009101    -0.0000843     0.0000601    -0.0001035     0.0001780    -1.7229605    -0.9910671    -1.8204516     0.4512888
 52.54999924 44.50000000  0.00075517 -0.00773709    -0.0000404     0.0000144    -0.0000708     0.0000206    -1.1865769    -0.9088940    -1.3406985     0.0522256
 77.55000305 44.50000000  0.00000000 -0.00710473    -0.0000216     0.0000000    -0.0000679    -0.0000029    -1.0171616    -0.9077785    -1.2522847    -0.0074357
  0.00000000 47.00000000  0.00000000 -0.02171522     0.0004976     0.0004976    -0.0010827     0.0000020     1.6356917     1.6356917    -6.3772613     0.0051597
  0.69999999 47.00000000  0.00034635 -0.02169988     0.0004920     0.0004948    -0.0010795     0.0000932     1.5540907     1.5682549    -6.4146774     0.2362718
  1.39999998 47.00000000  0.00068879 -0.02165669     0.0004862     0.0004920    -0.0010689     0.0001869     1.5451130     1.5746625    -6.3401058     0.4737369
  2.97499990 47.00000000  0.00142281 -0.02144531     0.0004462     0.0004783    -0.0010413     0.0003919     1.0765516     1.2392848    -6.4661737     0.9935447
  4.55000019 47.00000000  0.00209420 -0.02109364     0.0003924     0.0004603    -0.0009837     0.0005739     0.6601487     1.0044707    -6.3175110     1.4550032
  7.05000019 47.00000000  0.00289877 -0.02023776     0.0002653     0.0004112    -0.0008455     0.0007691    -0.3687746     0.3707175    -6.0017375     1.9498181
  9.55000019 47.00000000  0.00342089 -0.01915408     0.0001357     0.0003582    -0.0006960     0.0008844    -1.3614319    -0.2333108    -5.5791507     2.2421899
 13.55000019 47.00000000  0.00366522 -0.01712431     0.0000031     0.0002705    -0.0004485     0.0007826    -1.7585231    -0.4024326    -4.0481914     1.9841987
 17.54999924 47.00000000  0.00344538 -0.01517760    -0.0001079     0.0001963    -0.0002764     0.0006396    -2.4536808    -0.9111900    -3.3084426     1.6215310
 25.04999924 47.00000000  0.00267247 -0.01230660    -0.0001033     0.0001067    -0.0001345     0.0003590    -1.8545345    -0.7895732    -2.0127990     0.9102364
 32.54999924 47.00000000  0.00189533 -0.01032199    -0.0000950     0.0000582    -0.0000815     0.0001593    -1.6818675    -0.9046715    -1.6132164     0.4039351
 42.54999924 47.00000000  0.00115614 -0.00876704    -0.0000617     0.0000272    -0.0000611     0.0000727    -1.2816947    -0.8312936    -1.2787627     0.1844424
 52.54999924 47.00000000  0.00066228 -0.00790230    -0.0000362     0.0000126    -0.0000607     0.0000086    -1.0386114    -0.7910376    -1.1626503     0.0217542
 65.05000305 47.00000000  0.00027594 -0.00740273    -0.0000265     0.0000042    -0.0000594     0.0000053    -0.9623067    -0.8064685    -1.1291490     0.0133375
 77.55000305 47.00000000  0.00000000 -0.00726497    -0.0000177     0.0000000    -0.0000597    -0.0000035    -0.8743389    -0.7847930    -1.0876436    -0.0087496
  0.00000000 48.50000000  0.00000000 -0.02362738     0.0006646     0.0006646    -0.0014796    -0.0000011     1.8441877     1.8441877    -9.0286378    -0.0028010
  1.39999998 48.50000000  0.00091535 -0.02353679     0.0006536     0.0006538    -0.0014553     0.0003263     1.8138101     1.8150213    -8.8799977     0.8272608
  4.55000019 48.50000000  0.00270917 -0.02275839     0.0004753     0.0005954    -0.0012399     0.0009303     0.6944098     1.3036095    -8.0026414     2.3586362
  9.55000019 48.50000000  0.00413248 -0.02022889     0.0000739     0.0004327    -0.0007198     0.0011741    -1.7878959     0.0316759    -5.8126289     2.9768728
 17.54999924 48.50000000  0.00371916 -0.01557436    -0.0001507     0.0002119    -0.0002448     0.0006733    -2.6261567    -0.7874216    -3.1034082     1.7070134
 32.54999924 48.50000000  0.00181829 -0.01043561    -0.0000979     0.0000559    -0.0000697     0.0001378    -1.6302173    -0.8504922    -1.4874129     0.3494944
 52.54999924 48.50000000  0.00058637 -0.00798849    -0.0000341     0.0000112    -0.0000549    -0.0000006    -0.9620035    -0.7327342    -1.0678641    -0.0015658
 77.55000305 48.50000000  0.00000000 -0.00735071    -0.0000157     0.0000000    -0.0000551    -0.0000034    -0.7983959    -0.7185924    -0.9980850    -0.0085993
  0.00000000 50.00000000  0.00000000 -0.02615415     0.0009446     0.0009446    -0.0011602     0.0000020     4.8854106     4.8854106   -10.0771781     0.0148485
  0.69999999 50.00000000  0.00065565 -0.02612059     0.0009287     0.0009366    -0.0011576     0.0001531     4.7147281     4.7531307   -10.2368791     0.6609299
  1.39999998 50.00000000  0.00130013 -0.02602274     0.0009120     0.0009287    -0.0011402     0.0003043     4.6250683     4.7050549    -9.9775228     1.2683641
  2.97499990 50.00000000  0.00261779 -0.02555672     0.0007618     0.0008799    -0.0010504     0.0005860     3.6189157     4.1872888    -9.6619329     2.5094323
  4.55000019 50.00000000  0.00369993 -0.02481325     0.0005779     0.0008132    -0.0009276     0.0008355     2.4227923     3.5551779    -8.9603351     3.5943056
  7.05000019 50.00000000  0.00472219 -0.02318832     0.0002743     0.0006698    -0.0006952     0.0009125     0.5273758     2.4309770    -7.4408236     3.8437799
  9.55000019 50.00000000  0.00507147 -0.02131360    -0.0000186     0.0005310    -0.0004652     0.0009144    -1.2123297     1.4330837    -5.9967431     3.9395433
 13.55000019 50.00000000  0.00471098 -0.01839569    -0.0001380     0.0003477    -0.0002628     0.0006548    -1.7336822     0.6036677    -3.9441913     2.7163107
 17.54999924 50.00000000  0.00396786 -0.01591206    -0.0002095     0.0002261    -0.0001423     0.0004243    -2.0752432     0.0210738    -2.9432031     1.7971527
 25.04999924 50.00000000  0.00270889 -0.01262599    -0.0001504     0.0001081    -0.0000607     0.0002144    -1.4308306    -0.1863536    -1.6576525     0.9128411
 32.54999924 50.00000000  0.00171152 -0.01053123    -0.0001004     0.0000526    -0.0000447     0.0000678    -1.0903372    -0.3541558    -1.3471449     0.2587743
 42.54999924 50.00000000  0.00098336 -0.00892618    -0.0000604     0.0000231    -0.0000349     0.0000335    -0.7629180    -0.3608452    -1.0581410     0.1516557
 52.54999924 50.00000000  0.00050298 -0.00806710    -0.0000312     0.0000096    -0.0000369    -0.0000058    -0.5597294    -0.3635657    -0.9730320    -0.0382665
 65.05000305 50.00000000  0.00021023 -0.00756833    -0.0000201     0.0000032    -0.0000372     0.0000010    -0.4835637    -0.3711732    -0.9439705     0.0074107
 77.55000305 50.00000000  0.00000000 -0.00743033    -0.0000135     0.0000000    -0.0000370    -0.0000034    -0.4338813    -0.3688203    -0.9105442    -0.0250039
  0.00000000 50.09999847  0.00000000 -0.02619743     0.0009407     0.0009407    -0.0004345     0.0000002     4.9462349     4.9462349   -10.7234613     0.0023307
  1.39999998 50.09999847  0.00129082 -0.02606505     0.0009053     0.0009220    -0.0004252     0.0001067     4.7562617     4.8324972   -10.5353682     1.3024187
  4.55000019 50.09999847  0.00367268 -0.02484889     0.0005717     0.0008072    -0.0003574     0.0003136     2.9726516     4.0452241    -9.3230403     3.8294722
  9.55000019 50.09999847  0.00502591 -0.02133397    -0.0000201     0.0005263    -0.0002035     0.0003400    -0.1724131     2.3166252    -6.1411641     4.1524235
 17.54999924 50.09999847  0.00392855 -0.01591996    -0.0002075     0.0002238    -0.0000788     0.0001495    -1.1634734     0.8015045    -2.9135477     1.8258208
 32.54999924 50.09999847  0.00169342 -0.01053437    -0.0000993     0.0000520    -0.0000313     0.0000178    -0.5953379     0.0941192    -1.3204043     0.2172265
 52.54999924 50.09999847  0.00049734 -0.00806949    -0.0000308     0.0000095    -0.0000238    -0.0000049    -0.2337943    -0.0502675    -0.9596866    -0.0603698
 77.55000305 50.09999847  0.00000000 -0.00743262    -0.0000134     0.0000000    -0.0000229    -0.0000034    -0.1429786    -0.0821578    -0.8994221    -0.0413077
  0.00000000 50.20000076  0.00000000 -0.02624105     0.0009369     0.0009369    -0.0004410    -0.0000017     4.9019071     4.9019071   -10.9887759    -0.0205862
  0.69999999 50.20000076  0.00064835 -0.02620833     0.0009155     0.0009262    -0.0004406     0.0000572     4.7719395     4.8207562   -11.0705040     0.6985722
  1.39999998 50.20000076  0.00128170 -0.02610778     0.0008986     0.0009155    -0.0004286     0.0001145     4.7022155     4.7790781   -10.7013236     1.3983386
  2.97499990 50.20000076  0.00258402 -0.02563699     0.0007506     0.0008686    -0.0004036     0.0002225     3.8991939     4.4368606   -10.3450002     2.7165984
  4.55000019 50.20000076  0.00364594 -0.02488473     0.0005656     0.0008013    -0.0003596     0.0003230     2.9255324     3.9993137    -9.4423031     3.9441594
  7.05000019 50.20000076  0.00464619 -0.02324317     0.0002669     0.0006590    -0.0002746     0.0003309     1.3597456     3.1459523    -7.5632753     4.0403340
  9.55000019 50.20000076  0.00498058 -0.02135429    -0.0000217     0.0005215    -0.0002034     0.0003463    -0.1858313     2.2887406    -6.1560796     4.2287258
 13.55000019 50.20000076  0.00461982 -0.01841923    -0.0001364     0.0003409    -0.0001173     0.0002233    -0.7589001     1.4157065    -3.8013502     2.7263723
 17.54999924 50.20000076  0.00388923 -0.01592781    -0.0002056     0.0002216    -0.0000780     0.0001498    -1.1527169     0.7932010    -2.8865820     1.8298719
 25.04999924 50.20000076  0.00265237 -0.01263406    -0.0001476     0.0001059    -0.0000402     0.0000769    -0.8359546     0.3187487    -1.6378275     0.9394000
 32.54999924 50.20000076  0.00167531 -0.01053750    -0.0000983     0.0000515    -0.0000309     0.0000171    -0.5887783     0.0933584    -1.3030630     0.2092733
 42.54999924 50.20000076  0.00096146 -0.00893118    -0.0000592     0.0000226    -0.0000248     0.0000139    -0.3817694    -0.0092427    -1.0422497     0.1695730
 52.54999924 50.20000076  0.00049170 -0.00807186    -0.0000305     0.0000094    -0.0000236    -0.0000052    -0.2311901    -0.0498017    -0.9502395    -0.0640724
 65.05000305 50.20000076  0.00020533 -0.00757305    -0.0000197     0.0000032    -0.0000234     0.0000010    -0.1767317    -0.0727563    -0.9301122     0.0123707
 77.55000305 50.20000076  0.00000000 -0.00743490    -0.0000132     0.0000000    -0.0000226    -0.0000034    -0.1414156    -0.0813531    -0.8909750    -0.0412051
  0.00000000 50.85000229  0.00000000 -0.02654006     0.0009026     0.0009026    -0.0004760    -0.0000001     4.5691549     4.5691549   -12.5117187    -0.0013413
  1.39999998 50.85000229  0.00123164 -0.02639723     0.0008649     0.0008797    -0.0004628     0.0001395     4.3740644     4.4415991   -12.1965562     1.7037287
  4.55000019 50.85000229  0.00348339 -0.02512392     0.0005278     0.0007656    -0.0003762     0.0003746     2.6271719     3.7103546   -10.2874454     4.5748248
  9.55000019 50.85000229  0.00469194 -0.02148540    -0.0000332     0.0004913    -0.0001997     0.0003763    -0.2705812     2.1185711    -6.1430423     4.5947889
 17.54999924 50.85000229  0.00363320 -0.01597722    -0.0001929     0.0002070    -0.0000743     0.0001523    -1.0861305     0.7358698    -2.7516713     1.8602922
 32.54999924 50.85000229  0.00155655 -0.01055699    -0.0000915     0.0000478    -0.0000292     0.0000157    -0.5494276     0.0851039    -1.2296375     0.1922370
 52.54999924 50.85000229  0.00045460 -0.00808675    -0.0000281     0.0000087    -0.0000222    -0.0000058    -0.2149356    -0.0473248    -0.8948677    -0.0707364
 77.55000305 50.85000229  0.00000000 -0.00744919    -0.0000121     0.0000000    -0.0000214    -0.0000033    -0.1316417    -0.0764118    -0.8394901    -0.0405073
  0.00000000 51.50000000  0.00000000 -0.02685984     0.0008732     0.0008732    -0.0005096     0.0000001     4.2740085     4.2740085   -13.9521065     0.0006399
  0.69999999 51.50000000  0.00060279 -0.02682222     0.0008490     0.0008611    -0.0005059     0.0000778     4.1370061     4.1921595   -13.9205825     0.9505914
  1.39999998 51.50000000  0.00118863 -0.02670943     0.0008353     0.0008490    -0.0004960     0.0001630     4.0772840     4.1396885   -13.6255630     1.9904001
  2.97499990 51.50000000  0.00239206 -0.02619408     0.0006823     0.0008041    -0.0004551     0.0002949     3.2964639     3.8509983   -12.6772077     3.6010377
  4.55000019 51.50000000  0.00333795 -0.02537381     0.0004906     0.0007336    -0.0003947     0.0004284     2.3305606     3.4375648   -11.1889088     5.2317315
  7.05000019 51.50000000  0.00418408 -0.02360768     0.0002145     0.0005935    -0.0002852     0.0004156     0.9664665     2.6929539    -8.3132360     5.0745259
  9.55000019 51.50000000  0.00441041 -0.02161391    -0.0000461     0.0004618    -0.0001969     0.0004070    -0.3655373     1.9483413    -6.1659863     4.9703094
 13.55000019 51.50000000  0.00403434 -0.01856696    -0.0001292     0.0002977    -0.0001097     0.0002528    -0.7408700     1.2041521    -3.6220805     3.0864752
 17.54999924 51.50000000  0.00337657 -0.01602437    -0.0001808     0.0001924    -0.0000704     0.0001546    -1.0217671     0.6783574    -2.6118380     1.8874144
 25.04999924 51.50000000  0.00228435 -0.01268340    -0.0001293     0.0000912    -0.0000358     0.0000796    -0.7356401     0.2687659    -1.4610223     0.9720742
 32.54999924 51.50000000  0.00143717 -0.01057549    -0.0000847     0.0000442    -0.0000274     0.0000141    -0.5096907     0.0770991    -1.1518881     0.1720110
 42.54999924 51.50000000  0.00081874 -0.00896160    -0.0000510     0.0000192    -0.0000220     0.0000137    -0.3310936    -0.0111477    -0.9227659     0.1670509
 52.54999924 51.50000000  0.00041733 -0.00810078    -0.0000258     0.0000079    -0.0000209    -0.0000065    -0.1985784    -0.0448265    -0.8391652    -0.0789112
 65.05000305 51.50000000  0.00017344 -0.00760181    -0.0000167     0.0000027    -0.0000208     0.0000010    -0.1528683    -0.0646778    -0.8254093     0.0116219
 77.55000305 51.50000000  0.00000000 -0.00746266    -0.0000111     0.0000000    -0.0000201    -0.0000033    -0.1218177    -0.0714501    -0.7878145    -0.0398224
  0.00000000 52.15000153  0.00000000 -0.02720755     0.0008470     0.0008470    -0.0005586     0.0000014     3.9537120     3.9537120   -15.9501842     0.0172197
  1.39999998 52.15000153  0.00115274 -0.02704655     0.0008098     0.0008234    -0.0005431     0.0001847     3.7669021     3.8289651   -15.5490989     2.2559083
  4.55000019 52.15000153  0.00320529 -0.02563847     0.0004541     0.0007045    -0.0004176     0.0004753     2.0273917     3.1678847   -12.2475172     5.8041186
  9.55000019 52.15000153  0.00413475 -0.02174089    -0.0000605     0.0004330    -0.0001925     0.0004312    -0.4630283     1.7850436    -6.1283532     5.2660729
 17.54999924 52.15000153  0.00311893 -0.01606860    -0.0001687     0.0001777    -0.0000662     0.0001564    -0.9569093     0.6212128    -2.4631742     1.9097975
 32.54999924 52.15000153  0.00131626 -0.01059262    -0.0000779     0.0000404    -0.0000256     0.0000126    -0.4701889     0.0687990    -1.0743427     0.1533981
 52.54999924 52.15000153  0.00037943 -0.00811391    -0.0000235     0.0000072    -0.0000195    -0.0000071    -0.1825351    -0.0424651    -0.7838553    -0.0865019