 TITLE ="GEORGIA TECH TEST PIT GRID (LINEAR ELASTIC/ISOTROPIC RUN)                       "
 VARIABLES = "R","Z","DISP_R","DISP_Z","EPSR","EPSTH","EPSZ","EPSRZ","SIGMAR","SIGMATH","SIGMAZ","SIGMARZ"
 ZONE T="GEOMETRY & DISP", N=  383, E=  112, F=FEPOINT, ET=QUADRILATERAL
  0.00000000  0.00000000  0.00000000  0.00000000     0.0000000     0.0000000    -0.0003295     0.0000000    -3.3416096    -3.3416096    -5.0124143     0.0000000
  0.69999999  0.00000000  0.00000000  0.00000000     0.0000000     0.0000000    -0.0003295     0.0000030    -3.3417483    -3.3417483    -5.0126224     0.0076917
  1.39999998  0.00000000  0.00000000  0.00000000     0.0000000     0.0000000    -0.0003294     0.0000061    -3.3409675    -3.3409675    -5.0114513     0.0153726
  2.97499990  0.00000000  0.00000000  0.00000000     0.0000000     0.0000000    -0.0003293     0.0000128    -3.3397483    -3.3397483    -5.0096224     0.0325255
  4.55000019  0.00000000  0.00000000  0.00000000     0.0000000     0.0000000    -0.0003288     0.0000195    -3.3340036    -3.3340036    -5.0010054     0.0494537
  7.05000019  0.00000000  0.00000000  0.00000000     0.0000000     0.0000000    -0.0003280     0.0000297    -3.3263097    -3.3263097    -4.9894646     0.0753261
  9.55000019  0.00000000  0.00000000  0.00000000     0.0000000     0.0000000    -0.0003262     0.0000394    -3.3083645    -3.3083645    -4.9625468     0.0999513
 13.55000019  0.00000000  0.00000000  0.00000000     0.0000000     0.0000000    -0.0003241     0.0000531    -3.2870694    -3.2870694    -4.9306042     0.1346496
 17.54999924  0.00000000  0.00000000  0.00000000     0.0000000     0.0000000    -0.0003202     0.0000648    -3.2471129    -3.2471129    -4.8706694     0.1642022
 25.04999924  0.00000000  0.00000000  0.00000000     0.0000000     0.0000000    -0.0003114     0.0000781    -3.1576103    -3.1576103    -4.7364155     0.1979739
 32.54999924  0.00000000  0.00000000  0.00000000     0.0000000     0.0000000    -0.0003029     0.0000836    -3.0718491    -3.0718491    -4.6077737     0.2120719
 42.54999924  0.00000000  0.00000000  0.00000000     0.0000000     0.0000000    -0.0002881     0.0000742    -2.9219665    -2.9219665    -4.3829497     0.1881597
 52.54999924  0.00000000  0.00000000  0.00000000     0.0000000     0.0000000    -0.0002806     0.0000580    -2.8457125    -2.8457125    -4.2685687     0.1471428
 65.05000305  0.00000000  0.00000000  0.00000000     0.0000000     0.0000000    -0.0002712     0.0000290    -2.7498500    -2.7498500    -4.1247750     0.0734220
 77.55000305  0.00000000  0.00000000  0.00000000     0.0000000     0.0000000    -0.0002700     0.0000000    -2.7380735    -2.7380735    -4.1071102     0.0000000
  0.00000000 10.00000000  0.00000000 -0.00339906     0.0000382     0.0000382    -0.0003503    -0.0000003    -2.5836181    -2.5836181    -4.5537562    -0.0006983
  1.39999998 10.00000000  0.00005342 -0.00339763     0.0000381     0.0000382    -0.0003501     0.0000066    -2.5836331    -2.5833908    -4.5520938     0.0166369
  4.55000019 10.00000000  0.00017175 -0.00338378     0.0000369     0.0000377    -0.0003480     0.0000215    -2.5845492    -2.5804509    -4.5364847     0.0543927
  9.55000019 10.00000000  0.00034629 -0.00333362     0.0000326     0.0000363    -0.0003405     0.0000428    -2.5893347    -2.5708325    -4.4812895     0.1085371
 17.54999924 10.00000000  0.00056396 -0.00320183     0.0000210     0.0000321    -0.0003202     0.0000693    -2.6019370    -2.5454214    -4.3319282     0.1755926
 32.54999924 10.00000000  0.00070642 -0.00288844    -0.0000027     0.0000217    -0.0002748     0.0000795    -2.6082625    -2.4843373    -3.9877483     0.2016493
 52.54999924 10.00000000  0.00047901 -0.00256581    -0.0000187     0.0000091    -0.0002326     0.0000482    -2.5502851    -2.4093137    -3.6347717     0.1220906
 77.55000305 10.00000000  0.00000000 -0.00243389    -0.0000191     0.0000000    -0.0002168    -0.0000014    -2.4885940    -2.3919160    -3.4911960    -0.0034395
  0.00000000 20.00000000  0.00000000 -0.00700623     0.0000661     0.0000661    -0.0003651     0.0000006    -2.0256423    -2.0256423    -4.2123617     0.0014811
  0.69999999 20.00000000  0.00004626 -0.00700491     0.0000660     0.0000661    -0.0003650     0.0000050    -2.0274335    -2.0271252    -4.2131987     0.0128019
  1.39999998 20.00000000  0.00009243 -0.00700179     0.0000660     0.0000660    -0.0003647     0.0000104    -2.0259805    -2.0256860    -4.2099746     0.0263861
  2.97499990 20.00000000  0.00019554 -0.00698540     0.0000649     0.0000657    -0.0003637     0.0000212    -2.0343679    -2.0301834    -4.2075932     0.0537306
  4.55000019 20.00000000  0.00029687 -0.00696009     0.0000638     0.0000652    -0.0003615     0.0000324    -2.0335593    -2.0264224    -4.1904714     0.0821148
  7.05000019 20.00000000  0.00045171 -0.00689517     0.0000600     0.0000641    -0.0003570     0.0000482    -2.0583813    -2.0375649    -4.1726614     0.1222070
  9.55000019 20.00000000  0.00059671 -0.00681004     0.0000558     0.0000625    -0.0003503     0.0000632    -2.0691197    -2.0353870    -4.1282640     0.1603561
 13.55000019 20.00000000  0.00079893 -0.00662526     0.0000455     0.0000590    -0.0003362     0.0000819    -2.1198852    -2.0515288    -4.0553611     0.2077618
 17.54999924 20.00000000  0.00096056 -0.00640368     0.0000344     0.0000547    -0.0003200     0.0000965    -2.1665218    -2.0635208    -3.9636515     0.2445477
 25.04999924 20.00000000  0.00113426 -0.00594601     0.0000128     0.0000453    -0.0002813     0.0000998    -2.1981551    -2.0335284    -3.6892711     0.2530966
 32.54999924 20.00000000  0.00115277 -0.00549573    -0.0000071     0.0000354    -0.0002481     0.0000945    -2.2654865    -2.0497528    -3.4874282     0.2395338
 42.54999924 20.00000000  0.00102150 -0.00500085    -0.0000199     0.0000240    -0.0002112     0.0000706    -2.2006794    -1.9781734    -3.1708176     0.1790985
 52.54999924 20.00000000  0.00075529 -0.00465117    -0.0000319     0.0000144    -0.0001854     0.0000461    -2.2198411    -1.9852885    -2.9984628     0.1168109
 65.05000305 20.00000000  0.00037647 -0.00441057    -0.0000302     0.0000058    -0.0001704     0.0000214    -2.1286553    -1.9461138    -2.8393408     0.0543081
 77.55000305 20.00000000  0.00000000 -0.00433580    -0.0000300     0.0000000    -0.0001644    -0.0000007    -2.1236432    -1.9714037    -2.8048661    -0.0016515
  0.00000000 27.00000000  0.00000000 -0.00967328     0.0000924     0.0000924    -0.0004029    -0.0000003    -1.7431700    -1.7431700    -4.2549788    -0.0008132
  1.39999998 27.00000000  0.00012900 -0.00966508     0.0000922     0.0000921    -0.0004022     0.0000177    -1.7416799    -1.7420263    -4.2486874     0.0447766
  4.55000019 27.00000000  0.00041271 -0.00958825     0.0000881     0.0000907    -0.0003951     0.0000565    -1.7462626    -1.7332628    -4.1966724     0.1433393
  9.55000019 27.00000000  0.00081534 -0.00931720     0.0000730     0.0000854    -0.0003706     0.0001084    -1.7818768    -1.7192101    -4.0313524     0.2747908
 17.54999924 27.00000000  0.00126250 -0.00862298     0.0000368     0.0000719    -0.0003143     0.0001517    -1.8972447    -1.7193079    -3.6777352     0.3845503
 32.54999924 27.00000000  0.00141083 -0.00712994    -0.0000163     0.0000433    -0.0002174     0.0001217    -2.0128868    -1.7104345    -3.0324387     0.3084879
 52.54999924 27.00000000  0.00086550 -0.00584099    -0.0000372     0.0000165    -0.0001536     0.0000486    -1.9561117    -1.6840936    -2.5464244     0.1232603
 77.55000305 27.00000000  0.00000000 -0.00538569    -0.0000326     0.0000000    -0.0001348    -0.0000006    -1.8636865    -1.6982295    -2.3818873    -0.0014455
  0.00000000 34.00000000  0.00000000 -0.01264733     0.0001279     0.0001279    -0.0004461     0.0000008    -1.2800301    -1.2800301    -4.1906066     0.0020063
  0.69999999 34.00000000  0.00008940 -0.01264336     0.0001275     0.0001277    -0.0004457     0.0000150    -1.2856479    -1.2845498    -4.1924449     0.0379160
  1.39999998 34.00000000  0.00017851 -0.01263256     0.0001272     0.0001275    -0.0004447     0.0000307    -1.2812897    -1.2797649    -4.1809976     0.0779081
  2.97499990 34.00000000  0.00037602 -0.01257871     0.0001235     0.0001264    -0.0004408     0.0000631    -1.3102672    -1.2954854    -4.1716212     0.1600657
  4.55000019 34.00000000  0.00056746 -0.01249158     0.0001192     0.0001247    -0.0004335     0.0000958    -1.3175810    -1.2897158    -4.1201277     0.2429165
  7.05000019 34.00000000  0.00084898 -0.01227889     0.0001064     0.0001204    -0.0004179     0.0001381    -1.3978706    -1.3267357    -4.0561813     0.3502374
  9.55000019 34.00000000  0.00109944 -0.01199849     0.0000914     0.0001151    -0.0003968     0.0001766    -1.4663312    -1.3460993    -3.9420857     0.4476613
 13.55000019 34.00000000  0.00140399 -0.01143716     0.0000634     0.0001036    -0.0003542     0.0002053    -1.5769146    -1.3730923    -3.6947385     0.5204003
 17.54999924 34.00000000  0.00160680 -0.01080367     0.0000345     0.0000916    -0.0003133     0.0002255    -1.7241527    -1.4347057    -3.4874899     0.5717244
 25.04999924 34.00000000  0.00172387 -0.00959175     0.0000003     0.0000688    -0.0002393     0.0001926    -1.7247233    -1.3770615    -2.9392647     0.4882912
 32.54999924 34.00000000  0.00161061 -0.00853891    -0.0000292     0.0000495    -0.0001867     0.0001517    -1.8366364    -1.4374814    -2.6352356     0.3846243
 42.54999924 34.00000000  0.00129319 -0.00749222    -0.0000355     0.0000304    -0.0001449     0.0000954    -1.7012237    -1.3672581    -2.2563062     0.2418664
 52.54999924 34.00000000  0.00090122 -0.00680144    -0.0000414     0.0000171    -0.0001206     0.0000491    -1.6782369    -1.3814401    -2.0797303     0.1245620
 65.05000305 34.00000000  0.00042691 -0.00636053    -0.0000360     0.0000066    -0.0001081     0.0000213    -1.5779218    -1.3618493    -1.9431759     0.0539290
 77.55000305 34.00000000  0.00000000 -0.00622335    -0.0000323     0.0000000    -0.0001042    -0.0000012    -1.5477894    -1.3842221    -1.9127658    -0.0029768
  0.00000000 38.00000000  0.00000000 -0.01459248     0.0001618     0.0001618    -0.0005272    -0.0000005    -1.2448752    -1.2448752    -4.7388146    -0.0012717
  1.39999998 38.00000000  0.00022531 -0.01456982     0.0001609     0.0001609    -0.0005250     0.0000460    -1.2445662    -1.2442810    -4.7223851     0.1167277
  4.55000019 38.00000000  0.00071054 -0.01436210     0.0001472     0.0001562    -0.0005027     0.0001430    -1.2754163    -1.2300060    -4.5710904     0.3624654
  9.55000019 38.00000000  0.00133850 -0.01366222     0.0001021     0.0001402    -0.0004337     0.0002526    -1.4235470    -1.2305708    -4.1403120     0.6405208
 17.54999924 38.00000000  0.00184957 -0.01205209     0.0000230     0.0001054    -0.0003064     0.0002818    -1.6883346    -1.2707615    -3.3589534     0.7144750
 32.54999924 38.00000000  0.00169123 -0.00924119    -0.0000392     0.0000520    -0.0001629     0.0001596    -1.7212816    -1.2590050    -2.3483536     0.4047672
 52.54999924 38.00000000  0.00088150 -0.00724698    -0.0000416     0.0000168    -0.0001025     0.0000446    -1.5024226    -1.2062567    -1.8109257     0.1129558
 77.55000305 38.00000000  0.00000000 -0.00660972    -0.0000303     0.0000000    -0.0000892    -0.0000012    -1.3652895    -1.2118079    -1.6642302    -0.0029933
  0.00000000 42.00000000  0.00000000 -0.01686530     0.0002081     0.0002081    -0.0006091    -0.0000001    -0.9007948    -0.9007948    -5.0447390    -0.0003086
  0.69999999 42.00000000  0.00014523 -0.01685712     0.0002068     0.0002075    -0.0006078     0.0000333    -0.9136732    -0.9104132    -5.0444966     0.0843243
  1.39999998 42.00000000  0.00028956 -0.01683241     0.0002062     0.0002068    -0.0006045     0.0000696    -0.8955737    -0.8924882    -5.0063737     0.1764301
  2.97499990 42.00000000  0.00060643 -0.01671063     0.0001955     0.0002038    -0.0005930     0.0001412    -0.9734392    -0.9309734    -4.9716538     0.3580130
  4.55000019 42.00000000  0.00090528 -0.01651347     0.0001826     0.0001990    -0.0005723     0.0002109    -1.0088163    -0.9257446    -4.8366352     0.5347219
  7.05000019 42.00000000  0.00131756 -0.01605419     0.0001487     0.0001869    -0.0005266     0.0002877    -1.1829125    -0.9892675    -4.6070618     0.7294153
  9.55000019 42.00000000  0.00164878 -0.01546790     0.0001110     0.0001726    -0.0004739     0.0003536    -1.3663294    -1.0539125    -4.3325041     0.8963792
 13.55000019 42.00000000  0.00197424 -0.01437441     0.0000569     0.0001457    -0.0003774     0.0003619    -1.4833948    -1.0332875    -3.6856479     0.9174574
 17.54999924 42.00000000  0.00210426 -0.01325508     0.0000057     0.0001199    -0.0003000     0.0003519    -1.7388003    -1.1598713    -3.2888147     0.8921007
 25.04999924 42.00000000  0.00202058 -0.01134051    -0.0000257     0.0000807    -0.0001979     0.0002569    -1.5796721    -1.0403316    -2.4527034     0.6514402
 32.54999924 42.00000000  0.00171873 -0.00984189    -0.0000510     0.0000528    -0.0001384     0.0001681    -1.6428145    -1.1166639    -2.0859608     0.4262828
 42.54999924 42.00000000  0.00125945 -0.00847450    -0.0000447     0.0000296    -0.0001013     0.0000948    -1.4072046    -1.0303111    -1.6938851     0.2403420
 52.54999924 42.00000000  0.00082416 -0.00762122    -0.0000407     0.0000157    -0.0000842     0.0000386    -1.3145917    -1.0284666    -1.5349155     0.0979690
 65.05000305 42.00000000  0.00037338 -0.00709765    -0.0000330     0.0000057    -0.0000762     0.0000162    -1.2155578    -1.0192890    -1.4345335     0.0410313
 77.55000305 42.00000000  0.00000000 -0.00693713    -0.0000268     0.0000000    -0.0000742    -0.0000017    -1.1594041    -1.0236386    -1.3996924    -0.0042605
  0.00000000 44.50000000  0.00000000 -0.01853394     0.0002531     0.0002531    -0.0007259     0.0000010    -0.9442402    -0.9442402    -5.9082082     0.0025176
  1.39999998 44.50000000  0.00035091 -0.01848517     0.0002502     0.0002506    -0.0007196     0.0000967    -0.9497898    -0.9474141    -5.8671462     0.2450758
  4.55000019 44.50000000  0.00108293 -0.01805573     0.0002127     0.0002380    -0.0006621     0.0002925    -1.0652284    -0.9370724    -5.5014699     0.7415774
  9.55000019 44.50000000  0.00190178 -0.01669969     0.0001098     0.0001991    -0.0005067     0.0004521    -1.4493533    -0.9963089    -4.5756460     1.1462680
 17.54999924 44.50000000  0.00227687 -0.01399351    -0.0000135     0.0001297    -0.0002859     0.0003919    -1.7898979    -1.0633481    -3.1709658     0.9936186
 32.54999924 44.50000000  0.00170246 -0.01016762    -0.0000569     0.0000523    -0.0001214     0.0001634    -1.5655775    -1.0119257    -1.8924829     0.4143537
 52.54999924 44.50000000  0.00076565 -0.00781784    -0.0000389     0.0000146    -0.0000736     0.0000325    -1.1899120    -0.9187888    -1.3656385     0.0824411
 77.55000305 44.50000000  0.00000000 -0.00711171    -0.0000240     0.0000000    -0.0000658    -0.0000017    -1.0324887    -0.9108468    -1.2446284    -0.0044054
  0.00000000 47.00000000  0.00000000 -0.02049455     0.0003127     0.0003127    -0.0008441     0.0000018    -0.6329922    -0.6329922    -6.4989359     0.0046216
  0.69999999 47.00000000  0.00021762 -0.02047785     0.0003091     0.0003109    -0.0008420     0.0000650    -0.6848313    -0.6756778    -6.5217735     0.1648822
  1.39999998 47.00000000  0.00043271 -0.02043029     0.0003076     0.0003091    -0.0008339     0.0001339    -0.6435518    -0.6359287    -6.4316430     0.3396052
  2.97499990 47.00000000  0.00089832 -0.02019813     0.0002816     0.0003020    -0.0008048     0.0002692    -0.8158791    -0.7125012    -6.3243474     0.6824293
  4.55000019 47.00000000  0.00131965 -0.01982418     0.0002484     0.0002900    -0.0007545     0.0003987    -0.9310586    -0.7200715    -6.0164931     1.0108328
  7.05000019 47.00000000  0.00184597 -0.01899250     0.0001777     0.0002618    -0.0006473     0.0004983    -1.2064541    -0.7796026    -5.3895518     1.2634912
  9.55000019 47.00000000  0.00220795 -0.01800162     0.0001036     0.0002312    -0.0005430     0.0005739    -1.5862289    -0.9390075    -4.8644986     1.4549921
 13.55000019 47.00000000  0.00245441 -0.01627487     0.0000280     0.0001811    -0.0003800     0.0005179    -1.5904752    -0.8141272    -3.6595706     1.3131564
 17.54999924 47.00000000  0.00243221 -0.01468462    -0.0000380     0.0001386    -0.0002710     0.0004384    -1.9202641    -1.0249086    -3.1015927     1.1114991
 25.04999924 47.00000000  0.00209753 -0.01222615    -0.0000524     0.0000837    -0.0001573     0.0002837    -1.5437335    -0.8534121    -2.0758615     0.7191884
 32.54999924 47.00000000  0.00164614 -0.01044866    -0.0000630     0.0000506    -0.0001040     0.0001577    -1.5005195    -0.9244895    -1.7082409     0.3998917
 42.54999924 47.00000000  0.00111633 -0.00891112    -0.0000479     0.0000262    -0.0000734     0.0000829    -1.2065617    -0.8307696    -1.3359799     0.2100942
 52.54999924 47.00000000  0.00068864 -0.00798899    -0.0000361     0.0000131    -0.0000631     0.0000254    -1.0567483    -0.8070198    -1.1933745     0.0642826
 65.05000305 47.00000000  0.00030006 -0.00743437    -0.0000275     0.0000046    -0.0000585     0.0000109    -0.9652922    -0.8022251    -1.1221365     0.0275533
 77.55000305 47.00000000  0.00000000 -0.00726625    -0.0000205     0.0000000    -0.0000575    -0.0000020    -0.8946079    -0.7908391    -1.0824899    -0.0050999
  0.00000000 48.50000000  0.00000000 -0.02186034     0.0003619     0.0003619    -0.0009754    -0.0000019    -0.7169195    -0.7169195    -7.4980194    -0.0047046
  1.39999998 48.50000000  0.00049954 -0.02177370     0.0003552     0.0003568    -0.0009599     0.0001732    -0.7134536    -0.7051694    -7.3820388     0.4391908
  4.55000019 48.50000000  0.00150433 -0.02102502     0.0002749     0.0003306    -0.0008448     0.0005070    -1.0329538    -0.7502247    -6.7103296     1.2853766
  9.55000019 48.50000000  0.00242635 -0.01883608     0.0000894     0.0002541    -0.0005615     0.0006663    -1.7573224    -0.9225482    -5.0581183     1.6893321
 17.54999924 48.50000000  0.00251873 -0.01508315    -0.0000555     0.0001435    -0.0002564     0.0004560    -1.9899901    -0.9806721    -3.0087671     1.1560864
 32.54999924 48.50000000  0.00159117 -0.01059740    -0.0000651     0.0000489    -0.0000938     0.0001495    -1.4463953    -0.8682787    -1.5918681     0.3789690
 52.54999924 48.50000000  0.00063083 -0.00807899    -0.0000340     0.0000120    -0.0000572     0.0000199    -0.9755217    -0.7422377    -1.0931196     0.0503585
 77.55000305 48.50000000  0.00000000 -0.00734887    -0.0000182     0.0000000    -0.0000529    -0.0000020    -0.8140106    -0.7215918    -0.9899688    -0.0051449
  0.00000000 50.00000000  0.00000000 -0.02342080     0.0004236     0.0004236    -0.0009294    -0.0000043     9.9400638     9.9400638    -8.1134402    -0.0316148
  0.69999999 50.00000000  0.00029424 -0.02339464     0.0004171     0.0004203    -0.0009252     0.0000661     9.5372251     9.5848962    -8.3548479     0.2707050
  1.39999998 50.00000000  0.00058390 -0.02331010     0.0004136     0.0004171    -0.0009146     0.0001374     9.6058893     9.6557590    -8.1037042     0.6001066
  2.97499990 50.00000000  0.00120001 -0.02294870     0.0003656     0.0004034    -0.0008582     0.0002557     8.2568918     8.8074639    -7.9940232     1.0632075
  4.55000019 50.00000000  0.00173553 -0.02235851     0.0003036     0.0003814    -0.0007721     0.0003862     7.1766555     8.3110865    -6.9750561     1.6275762
  7.05000019 50.00000000  0.00233476 -0.02108374     0.0001866     0.0003312    -0.0006085     0.0004359     4.1178052     6.2258625    -6.1615595     1.8234750
  9.55000019 50.00000000  0.00266838 -0.01968616     0.0000703     0.0002794    -0.0004480     0.0004674     1.2918375     4.3404807    -5.0847124     1.9644394
 13.55000019 50.00000000  0.00276805 -0.01738888    -0.0000104     0.0002043    -0.0002757     0.0003829    -0.5047939     2.6252791    -3.5017963     1.5935346
 17.54999924 50.00000000  0.00258501 -0.01545396    -0.0000758     0.0001473    -0.0001602     0.0002870    -2.5418743     0.7104183    -3.0330364     1.2082655
 25.04999924 50.00000000  0.00205358 -0.01265028    -0.0000712     0.0000820    -0.0000743     0.0001737    -2.2305434     0.0029098    -1.7774049     0.7273842
 32.54999924 50.00000000  0.00151667 -0.01073010    -0.0000669     0.0000466    -0.0000394     0.0000845    -2.3631409    -0.7085394    -1.5458832     0.3497074
 42.54999924 50.00000000  0.00096965 -0.00910716    -0.0000476     0.0000228    -0.0000227     0.0000430    -1.8140354    -0.7885429    -1.1242144     0.1828138
 52.54999924 50.00000000  0.00056558 -0.00816057    -0.0000314     0.0000108    -0.0000211     0.0000084    -1.4346583    -0.8198789    -0.9945969     0.0307983
 65.05000305 50.00000000  0.00023946 -0.00759563    -0.0000226     0.0000037    -0.0000203     0.0000043    -1.2516751    -0.8682009    -0.9459950     0.0200252
 77.55000305 50.00000000  0.00000000 -0.00742503    -0.0000157     0.0000000    -0.0000212    -0.0000021    -1.0632314    -0.8344915    -0.8817887    -0.0154970
  0.00000000 50.09999847  0.00000000 -0.02349556     0.0004150     0.0004150    -0.0007417    -0.0000039    19.5596484    19.5596484    -8.2988806    -0.0472755
  1.39999998 50.09999847  0.00057339 -0.02338357     0.0004073     0.0004096    -0.0007288     0.0000581    19.3520506    19.4078435    -8.0104997     0.6993319
  4.55000019 50.09999847  0.00170332 -0.02241919     0.0002989     0.0003744    -0.0006025     0.0001577    14.8644481    16.6824949    -6.8463961     1.8997906
  9.55000019 50.09999847  0.00262525 -0.01971839     0.0000695     0.0002749    -0.0003207     0.0001816     4.2434627     9.1906893    -5.1546591     2.1866840
 17.54999924 50.09999847  0.00255169 -0.01546219    -0.0000744     0.0001454    -0.0000821     0.0001052    -2.9953163     2.2981603    -3.1819862     1.2675299
 32.54999924 50.09999847  0.00149985 -0.01072968    -0.0000660     0.0000461     0.0000042     0.0000285    -3.2977306    -0.5974717    -1.6061786     0.3435189
 52.54999924 50.09999847  0.00055967 -0.00815964    -0.0000310     0.0000107     0.0000092     0.0000018    -1.9516802    -0.9483212    -0.9822824     0.0211541
 77.55000305 50.09999847  0.00000000 -0.00742441    -0.0000155     0.0000000     0.0000062    -0.0000021    -1.3775072    -1.0045228    -0.8547657    -0.0258324
  0.00000000 50.20000076  0.00000000 -0.02356913     0.0004065     0.0004065    -0.0007248    -0.0000035    19.3591613    19.3591613    -7.8905512    -0.0424178
  0.69999999 50.20000076  0.00028309 -0.02354205     0.0004023     0.0004044    -0.0007214     0.0000307    18.9403772    18.9913797    -8.1247184     0.3696082
  1.39999998 50.20000076  0.00056322 -0.02345585     0.0004012     0.0004023    -0.0007148     0.0000664    19.2682280    19.2955414    -7.6123129     0.7990774
  2.97499990 50.20000076  0.00115894 -0.02308486     0.0003522     0.0003896    -0.0006665     0.0001155    16.6435185    17.5432929    -7.8927092     1.3911897
  4.55000019 50.20000076  0.00167267 -0.02247901     0.0002943     0.0003676    -0.0005943     0.0001873    14.4166028    16.1826859    -6.9864157     2.2554312
  7.05000019 50.20000076  0.00226091 -0.02117666     0.0001821     0.0003207    -0.0004567     0.0001905     9.3894679    12.7266718    -5.9975886     2.2937204
  9.55000019 50.20000076  0.00258339 -0.01975029     0.0000686     0.0002705    -0.0003171     0.0002060     4.0403773     8.9033482    -5.2498809     2.4808193
 13.55000019 50.20000076  0.00268998 -0.01742534    -0.0000081     0.0001985    -0.0001814     0.0001522     0.7839552     5.7605500    -3.3902745     1.8332455
 17.54999924 50.20000076  0.00251864 -0.01547038    -0.0000730     0.0001435    -0.0000811     0.0001096    -2.9136011     2.3020771    -3.1088139     1.3197794
 25.04999924 50.20000076  0.00200292 -0.01265465    -0.0000690     0.0000800    -0.0000222     0.0000647    -2.8849628     0.7038323    -1.7565107     0.7786691
 32.54999924 50.20000076  0.00148302 -0.01072926    -0.0000652     0.0000456     0.0000043     0.0000267    -3.2333677    -0.5663306    -1.5612165     0.3219741
 42.54999924 50.20000076  0.00094702 -0.00910484    -0.0000465     0.0000223     0.0000114     0.0000163    -2.5055210    -0.8503116    -1.1114285     0.1961502
 52.54999924 50.20000076  0.00055375 -0.00815872    -0.0000306     0.0000105     0.0000091     0.0000003    -1.9298759    -0.9388954    -0.9743974     0.0041246
 65.05000305 50.20000076  0.00023394 -0.00759400    -0.0000222     0.0000036     0.0000081     0.0000020    -1.6675157    -1.0473823    -0.9391110     0.0239314
 77.55000305 50.20000076  0.00000000 -0.00742379    -0.0000153     0.0000000     0.0000060    -0.0000022    -1.3691165    -1.0010838    -0.8555142    -0.0260588
  0.00000000 50.85000229  0.00000000 -0.02402381     0.0003699     0.0003699    -0.0006791    -0.0000018    15.4883325    15.4883325    -9.7777270    -0.0214975
  1.39999998 50.85000229  0.00051085 -0.02390471     0.0003629     0.0003649    -0.0006683     0.0001073    15.1859945    15.2341208    -9.6523700     1.2921918
  4.55000019 50.85000229  0.00151370 -0.02285237     0.0002678     0.0003327    -0.0005541     0.0003040    11.4802404    13.0421057    -8.3175926     3.6609311
  9.55000019 50.85000229  0.00234581 -0.01994884     0.0000634     0.0002456    -0.0002941     0.0003080     3.1429511     7.5323146    -5.4684345     3.7098133
 17.54999924 50.85000229  0.00231007 -0.01552147    -0.0000649     0.0001316    -0.0000767     0.0001354    -2.6516771     2.0825255    -2.9362673     1.6309461
 32.54999924 50.85000229  0.00137106 -0.01072673    -0.0000598     0.0000421     0.0000033     0.0000251    -2.9919297    -0.5379974    -1.4727225     0.3023566
 52.54999924 50.85000229  0.00051332 -0.00815314    -0.0000282     0.0000098     0.0000081    -0.0000021    -1.7913188    -0.8773241    -0.9164181    -0.0255179
 77.55000305 50.85000229  0.00000000 -0.00742010    -0.0000140     0.0000000     0.0000054    -0.0000023    -1.2782760    -0.9398931    -0.8103755    -0.0277865
  0.00000000 51.50000000  0.00000000 -0.02445195     0.0003453     0.0003453    -0.0006391     0.0000016    13.9107005    13.9107005    -9.7995468     0.0196367
  0.69999999 51.50000000  0.00023971 -0.02441956     0.0003396     0.0003424    -0.0006337     0.0000702    13.4208520    13.4902428   -10.0204560     0.8452256
  1.39999998 51.50000000  0.00047540 -0.02432468     0.0003357     0.0003396    -0.0006230     0.0001449    13.7510077    13.8434368    -9.3421434     1.7452218
  2.97499990 51.50000000  0.00097334 -0.02389076     0.0002947     0.0003272    -0.0005792     0.0002668    11.7177116    12.5010095    -9.3299447     3.2126301
  4.55000019 51.50000000  0.00140355 -0.02319936     0.0002459     0.0003085    -0.0005172     0.0004064     9.9461092    11.4543010    -8.4330273     4.8941952
  7.05000019 51.50000000  0.00189054 -0.02172668     0.0001495     0.0002682    -0.0003897     0.0004023     6.6308882     9.4883600    -6.3579699     4.8449331
  9.55000019 51.50000000  0.00215118 -0.02013265     0.0000556     0.0002253    -0.0002730     0.0004013     2.1825747     6.2698064    -5.7319518     4.8333529
 13.55000019 51.50000000  0.00224563 -0.01764512    -0.0000049     0.0001657    -0.0001556     0.0002680     0.4482310     4.5583500    -3.1810081     3.2280386
 17.54999924 51.50000000  0.00211188 -0.01557014    -0.0000592     0.0001203    -0.0000721     0.0001626    -2.6149216     1.7097712    -2.9249375     1.9582017
 25.04999924 51.50000000  0.00168682 -0.01268240    -0.0000569     0.0000673    -0.0000206     0.0000866    -2.4747010     0.5172794    -1.6019835     1.0434319
 32.54999924 51.50000000  0.00125866 -0.01072496    -0.0000547     0.0000387     0.0000026     0.0000249    -2.7706827    -0.5213425    -1.3889661     0.2997834
 42.54999924 51.50000000  0.00080134 -0.00909137    -0.0000393     0.0000188     0.0000093     0.0000166    -2.1616767    -0.7609455    -0.9909566     0.1999839
 52.54999924 51.50000000  0.00047222 -0.00814813    -0.0000257     0.0000090     0.0000073    -0.0000042    -1.6463202    -0.8097967    -0.8506523    -0.0503967
 65.05000305 51.50000000  0.00019800 -0.00758436    -0.0000189     0.0000030     0.0000067     0.0000013    -1.4464905    -0.9182160    -0.8302220     0.0160136
 77.55000305 51.50000000  0.00000000 -0.00741680    -0.0000128     0.0000000     0.0000048    -0.0000024    -1.1787159    -0.8706302    -0.7560179    -0.0294217
  0.00000000 52.15000153  0.00000000 -0.02486598     0.0003302     0.0003302    -0.0006341     0.0000018    10.8099493    10.8099493   -12.4167751     0.0218031
  1.39999998 52.15000153  0.00045370 -0.02472829     0.0003205     0.0003241    -0.0006197     0.0001775    10.4134522    10.4999042   -12.2320491     2.1381761
  4.55000019 52.15000153  0.00132815 -0.02353190     0.0002267     0.0002919    -0.0005023     0.0004855     7.2167618     8.7882813   -10.3420460     5.8468073
  9.55000019 52.15000153  0.00199220 -0.02030321     0.0000426     0.0002086    -0.0002502     0.0004692     1.1417789     5.1395427    -5.9108281     5.6503412
 17.54999924 52.15000153  0.00192603 -0.01561449    -0.0000548     0.0001097    -0.0000653     0.0001850    -2.4470425     1.5174113    -2.6983785     2.2285626
 32.54999924 52.15000153  0.00114549 -0.01072323    -0.0000496     0.0000352     0.0000022     0.0000248    -2.5279428    -0.4846049    -1.2802325     0.2985318
 52.54999924 52.15000153  0.00042944 -0.00814367    -0.0000234     0.0000082     0.0000064    -0.0000061    -1.5168536    -0.7566138    -0.7987561    -0.0729813