# vtk DataFile Version 2.0
./vtk
ASCII

DATASET UNSTRUCTURED_GRID
POINTS 1337 double
0 0 0.0
0.0777 0 0.0
0.1554 0 0.0
0.2331 0 0.0
0.3108 0 0.0
0.3885 0 0.0
0.4662 0 0.0
0.5439 0 0.0
0.6216 0 0.0
0.6993 0 0.0
0.777 0 0.0
0.8547 0 0.0
0.9324 0 0.0
1.0102 0 0.0
1.0879 0 0.0
1.1656 0 0.0
1.2433 0 0.0
1.321 0 0.0
1.3987 0 0.0
1.4764 0 0.0
1.5541 0 0.0
1.6318 0 0.0
1.7095 0 0.0
1.7872 0 0.0
1.8649 0 0.0
1.9426 0 0.0
2.0203 0 0.0
2.098 0 0.0
2.1757 0 0.0
2.2534 0 0.0
2.3311 0 0.0
2.4088 0 0.0
2.4865 0 0.0
2.5642 0 0.0
2.6419 0 0.0
2.7196 0 0.0
2.7973 0 0.0
2.8751 0 0.0
2.9528 0 0.0
0 -0.1342 0.0
0.1554 -0.1342 0.0
0.3108 -0.1342 0.0
0.4662 -0.1342 0.0
0.6216 -0.1342 0.0
0.777 -0.1342 0.0
0.9324 -0.1342 0.0
1.0879 -0.1342 0.0
1.2433 -0.1342 0.0
1.3987 -0.1342 0.0
1.5541 -0.1342 0.0
1.7095 -0.1342 0.0
1.8649 -0.1342 0.0
2.0203 -0.1342 0.0
2.1757 -0.1342 0.0
2.3311 -0.1342 0.0
2.4865 -0.1342 0.0
2.6419 -0.1342 0.0
2.7973 -0.1342 0.0
2.9528 -0.1342 0.0
0 -0.2684 0.0
0.0777 -0.2684 0.0
0.1554 -0.2684 0.0
0.2331 -0.2684 0.0
0.3108 -0.2684 0.0
0.3885 -0.2684 0.0
0.4662 -0.2684 0.0
0.5439 -0.2684 0.0
0.6216 -0.2684 0.0
0.6993 -0.2684 0.0
0.777 -0.2684 0.0
0.8547 -0.2684 0.0
0.9324 -0.2684 0.0
1.0102 -0.2684 0.0
1.0879 -0.2684 0.0
1.1656 -0.2684 0.0
1.2433 -0.2684 0.0
1.321 -0.2684 0.0
1.3987 -0.2684 0.0
1.4764 -0.2684 0.0
1.5541 -0.2684 0.0
1.6318 -0.2684 0.0
1.7095 -0.2684 0.0
1.7872 -0.2684 0.0
1.8649 -0.2684 0.0
1.9426 -0.2684 0.0
2.0203 -0.2684 0.0
2.098 -0.2684 0.0
2.1757 -0.2684 0.0
2.2534 -0.2684 0.0
2.3311 -0.2684 0.0
2.4088 -0.2684 0.0
2.4865 -0.2684 0.0
2.5642 -0.2684 0.0
2.6419 -0.2684 0.0
2.7196 -0.2684 0.0
2.7973 -0.2684 0.0
2.8751 -0.2684 0.0
2.9528 -0.2684 0.0
0 -0.4026 0.0
0.1554 -0.4026 0.0
0.3108 -0.4026 0.0
0.4662 -0.4026 0.0
0.6216 -0.4026 0.0
0.777 -0.4026 0.0
0.9324 -0.4026 0.0
1.0879 -0.4026 0.0
1.2433 -0.4026 0.0
1.3987 -0.4026 0.0
1.5541 -0.4026 0.0
1.7095 -0.4026 0.0
1.8649 -0.4026 0.0
2.0203 -0.4026 0.0
2.1757 -0.4026 0.0
2.3311 -0.4026 0.0
2.4865 -0.4026 0.0
2.6419 -0.4026 0.0
2.7973 -0.4026 0.0
2.9528 -0.4026 0.0
0 -0.5369 0.0
0.0777 -0.5369 0.0
0.1554 -0.5369 0.0
0.2331 -0.5369 0.0
0.3108 -0.5369 0.0
0.3885 -0.5369 0.0
0.4662 -0.5369 0.0
0.5439 -0.5369 0.0
0.6216 -0.5369 0.0
0.6993 -0.5369 0.0
0.777 -0.5369 0.0
0.8547 -0.5369 0.0
0.9324 -0.5369 0.0
1.0102 -0.5369 0.0
1.0879 -0.5369 0.0
1.1656 -0.5369 0.0
1.2433 -0.5369 0.0
1.321 -0.5369 0.0
1.3987 -0.5369 0.0
1.4764 -0.5369 0.0
1.5541 -0.5369 0.0
1.6318 -0.5369 0.0
1.7095 -0.5369 0.0
1.7872 -0.5369 0.0
1.8649 -0.5369 0.0
1.9426 -0.5369 0.0
2.0203 -0.5369 0.0
2.098 -0.5369 0.0
2.1757 -0.5369 0.0
2.2534 -0.5369 0.0
2.3311 -0.5369 0.0
2.4088 -0.5369 0.0
2.4865 -0.5369 0.0
2.5642 -0.5369 0.0
2.6419 -0.5369 0.0
2.7196 -0.5369 0.0
2.7973 -0.5369 0.0
2.8751 -0.5369 0.0
2.9528 -0.5369 0.0
0 -0.6711 0.0
0.1554 -0.6711 0.0
0.3108 -0.6711 0.0
0.4662 -0.6711 0.0
0.6216 -0.6711 0.0
0.777 -0.6711 0.0
0.9324 -0.6711 0.0
1.0879 -0.6711 0.0
1.2433 -0.6711 0.0
1.3987 -0.6711 0.0
1.5541 -0.6711 0.0
1.7095 -0.6711 0.0
1.8649 -0.6711 0.0
2.0203 -0.6711 0.0
2.1757 -0.6711 0.0
2.3311 -0.6711 0.0
2.4865 -0.6711 0.0
2.6419 -0.6711 0.0
2.7973 -0.6711 0.0
2.9528 -0.6711 0.0
0 -0.8053 0.0
0.0777 -0.8053 0.0
0.1554 -0.8053 0.0
0.2331 -0.8053 0.0
0.3108 -0.8053 0.0
0.3885 -0.8053 0.0
0.4662 -0.8053 0.0
0.5439 -0.8053 0.0
0.6216 -0.8053 0.0
0.6993 -0.8053 0.0
0.777 -0.8053 0.0
0.8547 -0.8053 0.0
0.9324 -0.8053 0.0
1.0102 -0.8053 0.0
1.0879 -0.8053 0.0
1.1656 -0.8053 0.0
1.2433 -0.8053 0.0
1.321 -0.8053 0.0
1.3987 -0.8053 0.0
1.4764 -0.8053 0.0
1.5541 -0.8053 0.0
1.6318 -0.8053 0.0
1.7095 -0.8053 0.0
1.7872 -0.8053 0.0
1.8649 -0.8053 0.0
1.9426 -0.8053 0.0
2.0203 -0.8053 0.0
2.098 -0.8053 0.0
2.1757 -0.8053 0.0
2.2534 -0.8053 0.0
2.3311 -0.8053 0.0
2.4088 -0.8053 0.0
2.4865 -0.8053 0.0
2.5642 -0.8053 0.0
2.6419 -0.8053 0.0
2.7196 -0.8053 0.0
2.7973 -0.8053 0.0
2.8751 -0.8053 0.0
2.9528 -0.8053 0.0
0 -0.9395 0.0
0.1554 -0.9395 0.0
0.3108 -0.9395 0.0
0.4662 -0.9395 0.0
0.6216 -0.9395 0.0
0.777 -0.9395 0.0
0.9324 -0.9395 0.0
1.0879 -0.9395 0.0
1.2433 -0.9395 0.0
1.3987 -0.9395 0.0
1.5541 -0.9395 0.0
1.7095 -0.9395 0.0
1.8649 -0.9395 0.0
2.0203 -0.9395 0.0
2.1757 -0.9395 0.0
2.3311 -0.9395 0.0
2.4865 -0.9395 0.0
2.6419 -0.9395 0.0
2.7973 -0.9395 0.0
2.9528 -0.9395 0.0
0 -1.0737 0.0
0.0777 -1.0737 0.0
0.1554 -1.0737 0.0
0.2331 -1.0737 0.0
0.3108 -1.0737 0.0
0.3885 -1.0737 0.0
0.4662 -1.0737 0.0
0.5439 -1.0737 0.0
0.6216 -1.0737 0.0
0.6993 -1.0737 0.0
0.777 -1.0737 0.0
0.8547 -1.0737 0.0
0.9324 -1.0737 0.0
1.0102 -1.0737 0.0
1.0879 -1.0737 0.0
1.1656 -1.0737 0.0
1.2433 -1.0737 0.0
1.321 -1.0737 0.0
1.3987 -1.0737 0.0
1.4764 -1.0737 0.0
1.5541 -1.0737 0.0
1.6318 -1.0737 0.0
1.7095 -1.0737 0.0
1.7872 -1.0737 0.0
1.8649 -1.0737 0.0
1.9426 -1.0737 0.0
2.0203 -1.0737 0.0
2.098 -1.0737 0.0
2.1757 -1.0737 0.0
2.2534 -1.0737 0.0
2.3311 -1.0737 0.0
2.4088 -1.0737 0.0
2.4865 -1.0737 0.0
2.5642 -1.0737 0.0
2.6419 -1.0737 0.0
2.7196 -1.0737 0.0
2.7973 -1.0737 0.0
2.8751 -1.0737 0.0
2.9528 -1.0737 0.0
0 -1.2079 0.0
0.1554 -1.2079 0.0
0.3108 -1.2079 0.0
0.4662 -1.2079 0.0
0.6216 -1.2079 0.0
0.777 -1.2079 0.0
0.9324 -1.2079 0.0
1.0879 -1.2079 0.0
1.2433 -1.2079 0.0
1.3987 -1.2079 0.0
1.5541 -1.2079 0.0
1.7095 -1.2079 0.0
1.8649 -1.2079 0.0
2.0203 -1.2079 0.0
2.1757 -1.2079 0.0
2.3311 -1.2079 0.0
2.4865 -1.2079 0.0
2.6419 -1.2079 0.0
2.7973 -1.2079 0.0
2.9528 -1.2079 0.0
0 -1.3422 0.0
0.0777 -1.3422 0.0
0.1554 -1.3422 0.0
0.2331 -1.3422 0.0
0.3108 -1.3422 0.0
0.3885 -1.3422 0.0
0.4662 -1.3422 0.0
0.5439 -1.3422 0.0
0.6216 -1.3422 0.0
0.6993 -1.3422 0.0
0.777 -1.3422 0.0
0.8547 -1.3422 0.0
0.9324 -1.3422 0.0
1.0102 -1.3422 0.0
1.0879 -1.3422 0.0
1.1656 -1.3422 0.0
1.2433 -1.3422 0.0
1.321 -1.3422 0.0
1.3987 -1.3422 0.0
1.4764 -1.3422 0.0
1.5541 -1.3422 0.0
1.6318 -1.3422 0.0
1.7095 -1.3422 0.0
1.7872 -1.3422 0.0
1.8649 -1.3422 0.0
1.9426 -1.3422 0.0
2.0203 -1.3422 0.0
2.098 -1.3422 0.0
2.1757 -1.3422 0.0
2.2534 -1.3422 0.0
2.3311 -1.3422 0.0
2.4088 -1.3422 0.0
2.4865 -1.3422 0.0
2.5642 -1.3422 0.0
2.6419 -1.3422 0.0
2.7196 -1.3422 0.0
2.7973 -1.3422 0.0
2.8751 -1.3422 0.0
2.9528 -1.3422 0.0
0 -1.4764 0.0
0.1554 -1.4764 0.0
0.3108 -1.4764 0.0
0.4662 -1.4764 0.0
0.6216 -1.4764 0.0
0.777 -1.4764 0.0
0.9324 -1.4764 0.0
1.0879 -1.4764 0.0
1.2433 -1.4764 0.0
1.3987 -1.4764 0.0
1.5541 -1.4764 0.0
1.7095 -1.4764 0.0
1.8649 -1.4764 0.0
2.0203 -1.4764 0.0
2.1757 -1.4764 0.0
2.3311 -1.4764 0.0
2.4865 -1.4764 0.0
2.6419 -1.4764 0.0
2.7973 -1.4764 0.0
2.9528 -1.4764 0.0
0 -1.6106 0.0
0.0777 -1.6106 0.0
0.1554 -1.6106 0.0
0.2331 -1.6106 0.0
0.3108 -1.6106 0.0
0.3885 -1.6106 0.0
0.4662 -1.6106 0.0
0.5439 -1.6106 0.0
0.6216 -1.6106 0.0
0.6993 -1.6106 0.0
0.777 -1.6106 0.0
0.8547 -1.6106 0.0
0.9324 -1.6106 0.0
1.0102 -1.6106 0.0
1.0879 -1.6106 0.0
1.1656 -1.6106 0.0
1.2433 -1.6106 0.0
1.321 -1.6106 0.0
1.3987 -1.6106 0.0
1.4764 -1.6106 0.0
1.5541 -1.6106 0.0
1.6318 -1.6106 0.0
1.7095 -1.6106 0.0
1.7872 -1.6106 0.0
1.8649 -1.6106 0.0
1.9426 -1.6106 0.0
2.0203 -1.6106 0.0
2.098 -1.6106 0.0
2.1757 -1.6106 0.0
2.2534 -1.6106 0.0
2.3311 -1.6106 0.0
2.4088 -1.6106 0.0
2.4865 -1.6106 0.0
2.5642 -1.6106 0.0
2.6419 -1.6106 0.0
2.7196 -1.6106 0.0
2.7973 -1.6106 0.0
2.8751 -1.6106 0.0
2.9528 -1.6106 0.0
0 -1.7448 0.0
0.1554 -1.7448 0.0
0.3108 -1.7448 0.0
0.4662 -1.7448 0.0
0.6216 -1.7448 0.0
0.777 -1.7448 0.0
0.9324 -1.7448 0.0
1.0879 -1.7448 0.0
1.2433 -1.7448 0.0
1.3987 -1.7448 0.0
1.5541 -1.7448 0.0
1.7095 -1.7448 0.0
1.8649 -1.7448 0.0
2.0203 -1.7448 0.0
2.1757 -1.7448 0.0
2.3311 -1.7448 0.0
2.4865 -1.7448 0.0
2.6419 -1.7448 0.0
2.7973 -1.7448 0.0
2.9528 -1.7448 0.0
0 -1.879 0.0
0.0777 -1.879 0.0
0.1554 -1.879 0.0
0.2331 -1.879 0.0
0.3108 -1.879 0.0
0.3885 -1.879 0.0
0.4662 -1.879 0.0
0.5439 -1.879 0.0
0.6216 -1.879 0.0
0.6993 -1.879 0.0
0.777 -1.879 0.0
0.8547 -1.879 0.0
0.9324 -1.879 0.0
1.0102 -1.879 0.0
1.0879 -1.879 0.0
1.1656 -1.879 0.0
1.2433 -1.879 0.0
1.321 -1.879 0.0
1.3987 -1.879 0.0
1.4764 -1.879 0.0
1.5541 -1.879 0.0
1.6318 -1.879 0.0
1.7095 -1.879 0.0
1.7872 -1.879 0.0
1.8649 -1.879 0.0
1.9426 -1.879 0.0
2.0203 -1.879 0.0
2.098 -1.879 0.0
2.1757 -1.879 0.0
2.2534 -1.879 0.0
2.3311 -1.879 0.0
2.4088 -1.879 0.0
2.4865 -1.879 0.0
2.5642 -1.879 0.0
2.6419 -1.879 0.0
2.7196 -1.879 0.0
2.7973 -1.879 0.0
2.8751 -1.879 0.0
2.9528 -1.879 0.0
0 -2.0132 0.0
0.1554 -2.0132 0.0
0.3108 -2.0132 0.0
0.4662 -2.0132 0.0
0.6216 -2.0132 0.0
0.777 -2.0132 0.0
0.9324 -2.0132 0.0
1.0879 -2.0132 0.0
1.2433 -2.0132 0.0
1.3987 -2.0132 0.0
1.5541 -2.0132 0.0
1.7095 -2.0132 0.0
1.8649 -2.0132 0.0
2.0203 -2.0132 0.0
2.1757 -2.0132 0.0
2.3311 -2.0132 0.0
2.4865 -2.0132 0.0
2.6419 -2.0132 0.0
2.7973 -2.0132 0.0
2.9528 -2.0132 0.0
0 -2.1475 0.0
0.0777 -2.1475 0.0
0.1554 -2.1475 0.0
0.2331 -2.1475 0.0
0.3108 -2.1475 0.0
0.3885 -2.1475 0.0
0.4662 -2.1475 0.0
0.5439 -2.1475 0.0
0.6216 -2.1475 0.0
0.6993 -2.1475 0.0
0.777 -2.1475 0.0
0.8547 -2.1475 0.0
0.9324 -2.1475 0.0
1.0102 -2.1475 0.0
1.0879 -2.1475 0.0
1.1656 -2.1475 0.0
1.2433 -2.1475 0.0
1.321 -2.1475 0.0
1.3987 -2.1475 0.0
1.4764 -2.1475 0.0
1.5541 -2.1475 0.0
1.6318 -2.1475 0.0
1.7095 -2.1475 0.0
1.7872 -2.1475 0.0
1.8649 -2.1475 0.0
1.9426 -2.1475 0.0
2.0203 -2.1475 0.0
2.098 -2.1475 0.0
2.1757 -2.1475 0.0
2.2534 -2.1475 0.0
2.3311 -2.1475 0.0
2.4088 -2.1475 0.0
2.4865 -2.1475 0.0
2.5642 -2.1475 0.0
2.6419 -2.1475 0.0
2.7196 -2.1475 0.0
2.7973 -2.1475 0.0
2.8751 -2.1475 0.0
2.9528 -2.1475 0.0
0 -2.2817 0.0
0.1554 -2.2817 0.0
0.3108 -2.2817 0.0
0.4662 -2.2817 0.0
0.6216 -2.2817 0.0
0.777 -2.2817 0.0
0.9324 -2.2817 0.0
1.0879 -2.2817 0.0
1.2433 -2.2817 0.0
1.3987 -2.2817 0.0
1.5541 -2.2817 0.0
1.7095 -2.2817 0.0
1.8649 -2.2817 0.0
2.0203 -2.2817 0.0
2.1757 -2.2817 0.0
2.3311 -2.2817 0.0
2.4865 -2.2817 0.0
2.6419 -2.2817 0.0
2.7973 -2.2817 0.0
2.9528 -2.2817 0.0
0 -2.4159 0.0
0.0777 -2.4159 0.0
0.1554 -2.4159 0.0
0.2331 -2.4159 0.0
0.3108 -2.4159 0.0
0.3885 -2.4159 0.0
0.4662 -2.4159 0.0
0.5439 -2.4159 0.0
0.6216 -2.4159 0.0
0.6993 -2.4159 0.0
0.777 -2.4159 0.0
0.8547 -2.4159 0.0
[...]
POINT_DATA 1337
SCALARS Displacement_R double 1
LOOKUP_TABLE default
0
8.10794e-06
1.62136e-05
2.43148e-05
3.24095e-05
4.04952e-05
4.85702e-05
5.66322e-05
6.46795e-05
7.271e-05
8.07224e-05
8.87146e-05
9.66858e-05
0.000104644
0.000112569
0.000120469
0.000128344
0.000136193
0.000144016
0.000151812
0.000159583
0.000167328
0.000175048
0.000182745
0.000190419
0.000198071
0.000205704
0.00021332
0.000220921
0.000228509
0.000236087
0.000243659
0.000251227
0.000258795
0.000266366
0.000273944
0.000281529
0.000289135
0.000296739
0
1.61731e-05
3.23311e-05
4.84596e-05
6.45446e-05
8.05738e-05
9.6536e-05
0.000112433
0.000128236
0.000143954
0.000159584
0.000175128
0.000190592
0.000205984
0.000221317
0.000236604
0.000251862
0.000267109
0.000282363
0.00029765
0
8.08372e-06
1.61657e-05
2.42444e-05
3.23183e-05
4.03856e-05
4.84451e-05
5.6495e-05
6.45343e-05
7.25611e-05
8.05747e-05
8.85734e-05
9.65568e-05
0.000104534
0.000112483
0.000120414
0.000128327
0.00013622
0.000144095
0.00015195
0.000159786
0.000167603
0.000175401
0.000183181
0.000190945
0.000198691
0.000206423
0.00021414
0.000221845
0.000229538
0.000237222
0.000244898
0.000252567
0.000260232
0.000267895
0.000275557
0.000283221
0.000290901
0.00029858
0
1.61872e-05
3.23626e-05
4.85147e-05
6.46325e-05
8.07062e-05
9.67268e-05
0.000112697
0.000128591
0.000144415
0.000160167
0.000175847
0.000191459
0.000207007
0.000222498
0.000237941
0.000253348
0.000268733
0.000284116
0.000299532
0
8.11659e-06
1.62317e-05
2.43441e-05
3.24523e-05
4.0555e-05
4.86509e-05
5.67387e-05
6.48172e-05
7.2885e-05
8.09414e-05
8.8985e-05
9.70151e-05
0.000105041
0.000113041
0.000121025
0.000128993
0.000136943
0.000144877
0.000152792
0.00016069
0.00016857
0.000176432
0.000184277
0.000192104
0.000199916
0.000207711
0.000215491
0.000223258
0.000231011
0.000238753
0.000246485
0.000254209
0.000261926
0.000269639
0.000277352
0.000285067
0.0002928
0.000300536
0
1.62963e-05
3.25817e-05
4.88455e-05
6.50772e-05
8.12674e-05
9.74071e-05
0.000113499
0.000129516
0.000145464
0.00016134
0.000177141
0.000192869
0.000208527
0.00022412
0.000239656
0.000255149
0.000270614
0.000286076
0.00030158
0
8.1892e-06
1.63769e-05
2.45619e-05
3.27427e-05
4.0918e-05
4.90864e-05
5.72466e-05
6.53975e-05
7.35375e-05
8.16658e-05
8.9781e-05
9.78823e-05
0.000105979
0.000114049
0.000122102
0.000130138
0.000138155
0.000146154
0.000154133
0.000162093
0.000170033
0.000177953
0.000185853
0.000193734
0.000201596
0.000209439
0.000217264
0.000225072
0.000232865
0.000240643
0.000248409
0.000256165
0.000263914
0.000271658
0.000279401
0.000287147
0.000294912
0.00030268
0
1.64714e-05
3.29312e-05
4.93679e-05
6.57703e-05
8.21279e-05
9.84305e-05
0.00011468
0.000130847
0.000146935
0.00016294
0.00017886
0.000194692
0.000210441
0.00022611
0.000241711
0.000257257
0.000272769
0.000288275
0.000303821
0
8.2893e-06
1.6577e-05
2.48616e-05
3.31416e-05
4.14155e-05
4.96817e-05
5.79387e-05
6.61852e-05
7.44197e-05
8.26408e-05
9.08472e-05
9.90376e-05
0.000107221
0.000115376
0.000123511
0.000131626
0.00013972
0.000147792
0.00015584
0.000163866
0.000171868
0.000179846
0.0001878
0.00019573
0.000203637
0.000211521
0.000219383
0.000227224
0.000235046
0.00024285
0.000250639
0.000258415
0.000266181
0.00027394
0.000281697
0.000289457
0.000297232
0.00030501
0
1.66919e-05
3.33705e-05
5.00228e-05
6.6636e-05
8.31975e-05
9.96955e-05
0.00011613
0.000132469
0.000148715
0.000164861
0.000180903
0.00019684
0.000212673
0.000228408
0.000244056
0.000259635
0.000275167
0.000290684
0.00030623
0
8.40796e-06
1.6814e-05
2.52167e-05
3.36139e-05
4.20041e-05
5.03855e-05
5.87564e-05
6.7115e-05
7.54596e-05
8.37888e-05
9.21007e-05
0.000100394
0.000108678
0.000116929
0.000125157
0.000133361
0.00014154
0.000149692
0.000157817
0.000165914
0.000173982
0.000182021
0.00019003
0.000198011
0.000205962
0.000213885
0.000221781
0.000229651
0.000237496
0.000245319
0.000253122
0.000260908
0.00026868
0.000276441
0.000284197
0.000291951
0.000299719
0.000307486
0
1.69417e-05
3.38682e-05
5.07644e-05
6.76154e-05
8.44065e-05
0.000101124
0.000117764
0.000134294
0.000150714
0.000167014
0.000183188
0.000199233
0.000215151
0.000230946
0.000246632
0.000262226
0.000277753
0.000293246
0.000308755
0
8.53756e-06
1.7073e-05
2.56044e-05
3.41298e-05
4.26471e-05
5.11543e-05
5.96495e-05
6.81307e-05
7.65958e-05
8.5043e-05
9.34703e-05
0.000101876
0.000110269
0.000118626
0.000126956
0.000135257
0.000143528
0.000151768
0.000159976
0.00016815
0.000176289
0.000184393
0.000192462
0.000200495
0.000208493
0.000216456
0.000224384
0.00023228
0.000240145
0.000247981
0.00025579
0.000263576
0.000271342
0.000279092
0.00028683
0.000294563
0.000302305
0.000310042
0
1.7206e-05
3.4395e-05
5.15498e-05
6.86536e-05
8.56895e-05
0.000102641
0.000119503
0.000136238
0.000152845
0.00016931
0.000185626
0.000201787
0.000217792
0.000233645
0.000249358
0.000264951
0.000280449
0.000295887
0.000311319
0
8.67065e-06
1.73389e-05
2.60029e-05
3.466e-05
4.33084e-05
5.19454e-05
6.05692e-05
6.91772e-05
7.77675e-05
8.63376e-05
9.48855e-05
0.000103409
0.000111917
0.000120385
0.000128822
0.000137227
0.000145597
0.00015393
0.000162226
0.000170482
0.000178698
0.000186873
0.000195004
0.000203093
0.000211139
0.000219143
0.000227104
0.000235024
0.000242905
0.000250749
0.000258557
0.000266335
0.000274084
0.000281809
0.000289516
0.00029721
0.000304906
0.000312592
0
1.74692e-05
3.49201e-05
5.23339e-05
6.96922e-05
8.69761e-05
0.000104167
0.000121257
0.000138207
0.00015501
0.000171651
0.000188118
0.000204401
0.000220497
0.000236407
0.000252141
0.000267717
0.000283162
0.000298513
0.000313829
0
8.7987e-06
1.75949e-05
2.63865e-05
3.5171e-05
4.39461e-05
5.27093e-05
6.14584e-05
7.01906e-05
7.89039e-05
8.75955e-05
9.62632e-05
0.000104904
0.000113527
0.000122108
0.000130655
0.000139165
0.000147637
0.000156068
0.000164456
0.0001728
0.000181096
0.000189345
0.000197544
0.000205692
0.000213789
0.000221835
0.00022983
0.000237774
0.000245669
0.000253516
0.000261319
0.000269079
0.000276801
0.000284489
0.000292149
0.000299787
0.000307419
0.000315033
0
1.77124e-05
3.54059e-05
5.30614e-05
7.06594e-05
8.81798e-05
0.000105602
0.000122917
0.00014008
0.000157083
0.000173906
0.000190532
0.000206945
0.000223138
0.000239107
0.000254857
0.000270404
0.000285774
0.000301007
0.000316163
0
8.91085e-06
1.78192e-05
2.67231e-05
3.56198e-05
4.45073e-05
5.33828e-05
6.22442e-05
7.10887e-05
7.9914e-05
8.87172e-05
9.7496e-05
0.000106247
0.00011498
0.000123668
0.000132321
0.000140935
0.000149508
0.000158036
0.000166518
0.00017495
0.000183331
0.000191657
0.000199926
0.000208138
0.00021629
0.000224382
0.000232412
0.000240381
0.00024829
0.000256139
0.000263931
0.000271668
0.000279354
0.000286994
0.000294593
0.000302157
0.000309704
0.000317223
0
1.7911e-05
3.58041e-05
5.36607e-05
7.14619e-05
8.91874e-05
0.000106816
0.000124336
0.000141701
0.000158898
0.000175902
0.000192691
0.000209242
0.00022554
0.000241573
0.000257339
0.00027285
0.000288127
0.00030321
0.000318164
0
8.99338e-06
1.79845e-05
2.69716e-05
3.59521e-05
4.49243e-05
5.38855e-05
6.28338e-05
7.17663e-05
8.06809e-05
8.95747e-05
9.84453e-05
0.000107289
0.000116116
0.000124899
0.000133646
0.000142355
0.000151021
0.000159643
0.000168215
0.000176735
0.0001852
0.000193605
0.000201949
0.000210227
0.000218439
0.000226581
0.000234651
0.000242649
0.000250574
0.000258426
0.000266206
0.000273917
0.000281561
0.000289143
0.000296668
0.000304143
0.000311585
0.000318986
0
1.80341e-05
3.60529e-05
5.40406e-05
7.19801e-05
8.98527e-05
0.000107637
0.000125322
0.000142859
0.000160231
0.000177407
0.000194358
0.000211054
0.000227467
0.000243575
0.000259366
0.00027484
0.000290013
0.000304919
0.000319627
0
9.02871e-06
1.80557e-05
2.70795e-05
3.60983e-05
4.51105e-05
5.4114e-05
6.31072e-05
7.20876e-05
8.10534e-05
9.00018e-05
9.89307e-05
0.000107837
0.000116729
0.000125581
0.000134401
0.000143185
0.000151929
0.00016063
0.000169284
0.000177885
0.00018643
0.000194914
0.000203333
0.000211683
0.000219959
0.000228157
0.000236275
0.000244309
0.000252257
0.000260118
0.000267891
0.000275577
0.000283177
0.000290696
0.000298138
0.000305509
0.000312827
0.000320084
0
1.80423e-05
3.60743e-05
5.40849e-05
7.20611e-05
8.9988e-05
0.000107847
0.000125628
0.000143281
0.000160787
0.000178111
0.000195215
0.000212057
0.000228598
0.0002448
0.000260634
0.000276084
0.000291151
0.000305863
0.000320282
0
8.99499e-06
1.79891e-05
2.69815e-05
3.59712e-05
4.49573e-05
5.39385e-05
6.29138e-05
7.18814e-05
8.084e-05
8.97873e-05
9.87217e-05
0.00010764
0.000116552
0.000125431
0.000134285
0.000143111
0.000151904
0.00016066
0.000169375
0.000178042
0.000186657
0.000195213
0.000203705
0.000212127
0.000220473
0.000228736
0.000236912
0.000244994
0.000252978
0.00026086
0.000268636
0.000276306
0.000283869
0.000291326
0.00029868
0.000305938
0.000313117
0.000320207
0
1.78878e-05
3.57726e-05
5.36505e-05
7.15156e-05
8.93587e-05
0.000107167
0.000124934
0.000142611
0.000160181
0.000177603
0.000194832
0.000211816
0.000228497
0.000244819
0.000260728
0.000276184
0.000291163
0.000305674
0.00031977
0
8.86621e-06
1.77326e-05
2.65995e-05
3.54669e-05
4.4335e-05
5.32034e-05
6.20721e-05
7.09405e-05
7.98081e-05
8.86734e-05
9.75359e-05
0.000106393
0.000115255
0.000124096
0.000132925
0.000141737
0.00015053
0.000159298
0.000168037
0.000176739
0.000185401
0.000194012
0.000202568
0.000211059
0.000219477
0.000227813
0.00023606
0.000244206
0.000252245
0.000260169
0.00026797
0.000275644
0.000283185
0.000290593
0.000297867
0.000305011
0.00031204
0.000318946
0
1.75147e-05
3.50361e-05
5.25698e-05
7.01193e-05
8.76847e-05
0.000105261
0.00012285
0.00014041
0.000157925
0.000175357
0.000192653
0.000209753
0.000226581
0.000243054
0.000259087
0.000274602
0.000289538
0.000303868
0.000317621
0
8.61283e-06
1.72273e-05
2.58448e-05
3.44668e-05
4.30947e-05
5.17296e-05
6.03728e-05
6.90249e-05
7.76867e-05
8.63584e-05
9.50402e-05
0.000103731
0.000112442
0.000121149
0.000129862
0.000138577
0.000147292
0.000156001
0.000164702
0.000173386
0.000182049
0.00019068
0.000199274
0.000207817
0.000216302
0.000224713
0.000233042
0.000241272
0.000249393
0.000257389
0.000265249
0.000272961
0.000280514
0.000287901
0.000295117
0.000302162
0.000309044
0.000315753
0
1.68619e-05
3.37417e-05
5.06563e-05
6.76209e-05
8.46473e-05
0.000101743
0.000118921
0.00013615
0.000153426
0.000170714
0.000187968
0.000205117
0.000222072
0.000238723
0.000254944
0.000270603
0.00028558
0.000299788
0.000313208
0
8.20423e-06
1.64117e-05
2.46248e-05
3.2847e-05
4.10807e-05
4.9329e-05
5.75942e-05
6.5879e-05
7.41854e-05
8.25155e-05
9.08711e-05
9.92533e-05
0.000107674
0.000116112
0.000124578
0.00013307
0.000141589
0.000150129
0.000158689
0.000167263
0.000175846
0.000184428
0.000193003
0.000201556
0.000210079
0.000218553
0.000226966
0.000235296
0.000243526
0.000251634
0.000259601
0.000267404
0.000275025
0.000282447
0.000289653
0.000296633
0.00030339
0.000309913
0
1.5869e-05
3.17672e-05
4.77235e-05
6.37653e-05
7.99181e-05
9.62037e-05
0.00011265
0.000129246
0.000146001
0.0001629
0.000179908
0.000196963
0.000213969
0.000230795
0.000247269
0.00026319
0.000278348
0.000292557
0.000305704
0
7.61157e-06
1.52278e-05
2.28523e-05
3.049e-05
3.81446e-05
4.58208e-05
5.35224e-05
6.12538e-05
6.90186e-05
7.6821e-05
8.46642e-05
9.25521e-05
0.000100498
0.000108484
0.000116522
0.000124615
0.000132764
0.000140969
0.000149229
0.000157542
0.000165905
0.000174311
0.000182756
0.000191227
0.000199714
0.000208198
0.000216666
0.000225087
0.000233445
0.000241703
0.000249836
0.000257805
0.000265579
0.000273118
0.000280399
0.000287398
0.000294096
0.000300458
0
1.44834e-05
2.90056e-05
4.36055e-05
5.83218e-05
7.31927e-05
8.82553e-05
0.000103555
0.000119102
0.000134932
0.000151057
0.000167474
0.000184148
0.000201005
0.000217912
0.000234666
0.000250987
0.000266539
0.000280961
0.000293983
0
6.8125e-06
1.36307e-05
2.0459e-05
2.73035e-05
3.41689e-05
4.10612e-05
4.7985e-05
5.49466e-05
6.19505e-05
6.90032e-05
7.6109e-05
8.32747e-05
9.05137e-05
9.78142e-05
0.000105189
0.000112646
0.000120186
0.000127817
0.00013554
0.000143359
0.000151276
0.000159291
0.000167402
0.000175604
0.000183891
0.000192248
0.000200664
0.000209109
0.000217562
0.000225978
0.000234322
0.000242537
0.000250577
0.000258385
0.000265891
0.000273025
0.000279764
0.000286087
0
1.26708e-05
2.53859e-05
3.81902e-05
5.11296e-05
6.42511e-05
7.76039e-05
9.12475e-05
0.000105217
0.000119572
0.000134365
0.000149636
0.000165409
0.000181674
0.000198352
0.000215266
0.000232082
0.000248302
0.000263332
0.00027653
0
5.79786e-06
1.16018e-05
1.74163e-05
2.32482e-05
2.91022e-05
3.49852e-05
4.09019e-05
4.68597e-05
5.28633e-05
5.89209e-05
6.50373e-05
7.12212e-05
7.74858e-05
8.38248e-05
9.02511e-05
9.67758e-05
0.000103404
0.000110147
0.00011701
0.000124006
0.00013114
0.000138423
0.00014586
0.000153459
0.000161223
0.000169152
0.000177245
0.000185487
0.000193866
0.000202336
0.000210871
0.000219373
0.000227801
0.000236003
0.000243945
0.000251522
0.000258583
0.000264923
0
1.04288e-05
2.09013e-05
3.14623e-05
4.21581e-05
5.3038e-05
6.41552e-05
7.55755e-05
8.73492e-05
9.95566e-05
0.00011228
0.00012561
0.000139644
0.000154474
0.000170161
0.000186681
0.000203812
0.000220978
0.000237098
0.000251093
0
4.57462e-06
9.15475e-06
1.37446e-05
1.83503e-05
2.29762e-05
2.76286e-05
3.2312e-05
3.70335e-05
4.17974e-05
4.66118e-05
5.14812e-05
5.64148e-05
6.14239e-05
6.65065e-05
7.1674e-05
7.69395e-05
8.23085e-05
8.77967e-05
9.34103e-05
9.91685e-05
0.000105078
0.000111163
0.000117431
0.000123909
0.000130606
0.000137553
0.000144761
0.000152254
0.000160044
0.000168135
0.000176532
0.000185186
0.000194021
0.000202907
0.000211563
0.000219734
0.000227398
0.000234667
0
7.79024e-06
1.56169e-05
2.35176e-05
3.15317e-05
3.97014e-05
4.80736e-05
5.67071e-05
6.56524e-05
7.49891e-05
8.48075e-05
9.52209e-05
0.000106373
0.000118445
0.000131662
0.000146279
0.000162513
0.000180349
0.000198807
0.00021477
0
3.16931e-06
6.34275e-06
9.52347e-06
1.27161e-05
1.59238e-05
1.91515e-05
2.24026e-05
2.56822e-05
2.8994e-05
3.23439e-05
3.57355e-05
3.9176e-05
4.26738e-05
4.62285e-05
4.98488e-05
5.35454e-05
5.7323e-05
6.11955e-05
6.51682e-05
6.92597e-05
7.3476e-05
7.78432e-05
8.23676e-05
8.70868e-05
9.20078e-05
9.71852e-05
0.000102627
0.000108411
0.000114546
0.00012114
0.000128207
0.000135858
0.000144132
0.000153049
0.000162865
0.000172892
0.000182746
0.000189814
0
4.82561e-06
9.67492e-06
1.45724e-05
1.95436e-05
2.46162e-05
2.98209e-05
3.51961e-05
4.07764e-05
4.66156e-05
5.27781e-05
5.93495e-05
6.64493e-05
7.42516e-05
8.30194e-05
9.31573e-05
0.000105271
0.000120189
0.000138622
0.000160094
0
1.62543e-06
3.25299e-06
4.88441e-06
6.52201e-06
8.16761e-06
9.82358e-06
1.14919e-05
1.3175e-05
1.4875e-05
1.65947e-05
1.83364e-05
2.01031e-05
2.18999e-05
2.37257e-05
2.5586e-05
2.74848e-05
2.94262e-05
3.14151e-05
3.34568e-05
3.55575e-05
3.77244e-05
3.99659e-05
4.2292e-05
4.47155e-05
4.72506e-05
4.99188e-05
5.27412e-05
5.57584e-05
5.90015e-05
6.25531e-05
6.64662e-05
7.09176e-05
7.59747e-05
8.20327e-05
8.92763e-05
9.86551e-05
0.000109423
0.000124845
0
1.63955e-06
3.28709e-06
4.95086e-06
6.63941e-06
8.36186e-06
1.01281e-05
1.19503e-05
1.38387e-05
1.58092e-05
1.78798e-05
2.00733e-05
2.24214e-05
2.49717e-05
2.78065e-05
3.10874e-05
3.51777e-05
4.09689e-05
5.08257e-05
7.1954e-05
0
0
0
0
0
0
0
0
0
0
0
0
0
0
0
0
0
0
0
0
0
0
0
0
0
0
0
0
0
0
0
0
0
0
0
0
0
0
0
SCALARS Displacement_Z double 1
LOOKUP_TABLE default
0.00181309
0.0018131
0.00181312
0.00181317
0.00181323
0.0018133
0.00181339
0.0018135
0.00181361
0.00181374
0.00181387
0.00181401
0.00181415
0.0018143
0.00181445
0.00181459
0.00181472
0.00181485
0.00181496
0.00181506
0.00181514
0.0018152
0.00181523
0.00181524
0.00181522
0.00181517
0.00181508
0.00181495
0.00181479
0.00181458
0.00181434
0.00181405
0.00181372
0.00181336
0.00181295
0.00181251
0.00181203
0.00181153
0.00181101
0.00177009
0.00177014
0.00177026
0.00177047
0.00177075
0.00177108
0.00177145
0.00177184
0.00177222
0.00177256
0.00177285
0.00177305
0.00177314
0.00177308
0.00177287
0.00177248
0.00177191
0.00177115
0.00177024
0.00176921
0.00172712
0.00172713
0.00172717
0.00172723
0.00172732
0.00172743
0.00172757
0.00172772
0.00172789
0.00172808
0.00172829
0.0017285
0.00172873
0.00172896
0.0017292
0.00172943
0.00172966
0.00172989
0.0017301
0.0017303
0.00173048
0.00173064
0.00173077
0.00173088
0.00173095
0.00173098
0.00173097
0.00173092
0.00173083
0.00173069
0.0017305
0.00173026
0.00172997
0.00172963
0.00172924
0.00172881
0.00172834
0.00172783
0.00172729
0.00168411
0.00168417
0.00168434
0.00168462
0.00168499
0.00168544
0.00168595
0.00168649
0.00168704
0.00168756
0.00168802
0.0016884
0.00168865
0.00168876
0.00168868
0.00168841
0.00168792
0.00168723
0.00168633
0.00168527
0.001641
0.00164101
0.00164106
0.00164114
0.00164125
0.00164139
0.00164156
0.00164176
0.00164198
0.00164222
0.00164248
0.00164276
0.00164305
0.00164335
0.00164366
0.00164397
0.00164428
0.00164459
0.00164488
0.00164517
0.00164543
0.00164567
0.00164589
0.00164607
0.00164622
0.00164634
0.0016464
0.00164643
0.0016464
0.00164632
0.00164619
0.001646
0.00164575
0.00164545
0.00164509
0.00164467
0.0016442
0.00164368
0.00164311
0.0015978
0.00159788
0.00159808
0.00159842
0.00159888
0.00159943
0.00160006
0.00160074
0.00160144
0.00160212
0.00160276
0.0016033
0.00160372
0.00160398
0.00160405
0.00160391
0.00160353
0.0016029
0.00160202
0.0016009
0.00155447
0.00155449
0.00155455
0.00155464
0.00155477
0.00155494
0.00155514
0.00155538
0.00155564
0.00155593
0.00155625
0.00155659
0.00155694
0.00155731
0.00155769
0.00155808
0.00155847
0.00155886
0.00155924
0.00155961
0.00155996
0.00156029
0.0015606
0.00156087
0.00156111
0.00156131
0.00156146
0.00156156
0.00156161
0.00156161
0.00156154
0.00156141
0.00156122
0.00156095
0.00156062
0.00156022
0.00155975
0.00155921
0.0015586
0.00151097
0.00151105
0.0015113
0.0015117
0.00151224
0.0015129
0.00151366
0.00151449
0.00151535
0.00151622
0.00151703
0.00151777
0.00151838
0.00151883
0.00151907
0.00151908
0.00151882
0.00151828
0.00151742
0.00151623
0.00146727
0.00146729
0.00146736
0.00146747
0.00146763
0.00146783
0.00146807
0.00146834
0.00146866
0.001469
0.00146938
0.00146978
0.00147021
0.00147066
0.00147112
0.0014716
0.00147208
0.00147256
0.00147304
0.00147351
0.00147397
0.0014744
0.00147481
0.00147519
0.00147553
0.00147584
0.00147609
0.00147629
0.00147644
0.00147652
0.00147654
0.00147648
0.00147635
0.00147614
0.00147585
0.00147548
0.00147501
0.00147446
0.00147381
0.00142337
0.00142347
0.00142376
0.00142423
0.00142487
0.00142566
0.00142657
0.00142758
0.00142863
0.0014297
0.00143075
0.00143172
0.00143256
0.00143324
0.0014337
0.00143391
0.0014338
0.00143336
0.00143255
0.00143133
0.00137922
0.00137924
0.00137932
0.00137945
0.00137964
0.00137987
0.00138015
0.00138048
0.00138085
0.00138126
0.00138171
0.00138219
0.0013827
0.00138325
0.00138381
0.00138438
0.00138497
0.00138557
0.00138617
0.00138676
0.00138734
0.00138791
0.00138845
0.00138896
0.00138943
0.00138986
0.00139024
0.00139057
0.00139084
0.00139103
0.00139115
0.00139119
0.00139115
0.00139101
0.00139078
0.00139044
0.00139
0.00138944
0.00138877
0.00133486
0.00133497
0.00133532
0.00133587
0.00133663
0.00133757
0.00133866
0.00133987
0.00134116
0.00134249
0.0013438
0.00134506
0.0013462
0.00134716
0.0013479
0.00134835
0.00134845
0.00134816
0.00134743
0.00134621
0.00129026
0.00129029
0.00129039
0.00129054
0.00129076
0.00129103
0.00129136
0.00129175
0.00129218
0.00129267
0.0012932
0.00129378
0.0012944
0.00129505
0.00129572
0.00129643
0.00129715
0.00129788
0.00129862
0.00129936
0.00130009
0.00130081
0.00130151
0.00130219
0.00130282
0.00130341
0.00130396
0.00130444
0.00130485
0.00130519
0.00130545
0.00130562
0.00130569
0.00130565
0.0013055
0.00130523
0.00130483
0.00130429
0.00130362
0.00124542
0.00124555
0.00124595
0.0012466
0.0012475
0.00124861
0.00124991
0.00125136
0.00125293
0.00125456
0.00125621
0.00125781
0.0012593
0.00126063
0.0012617
0.00126247
0.00126285
0.00126278
0.00126219
0.00126102
0.00120032
0.00120036
0.00120047
0.00120065
0.0012009
0.00120122
0.00120161
0.00120206
0.00120257
0.00120315
0.00120378
0.00120446
0.0012052
0.00120597
0.00120679
0.00120763
0.00120851
0.0012094
0.00121031
0.00121123
0.00121214
0.00121305
0.00121394
0.00121481
0.00121564
0.00121643
0.00121717
0.00121784