# vtk DataFile Version 2.0
./vtk
ASCII

DATASET UNSTRUCTURED_GRID
POINTS 971 double
0 0 0.0
0.0738 0 0.0
0.1476 0 0.0
0.2215 0 0.0
0.2953 0 0.0
0.3691 0 0.0
0.4429 0 0.0
0.5167 0 0.0
0.5906 0 0.0
0.6644 0 0.0
0.7382 0 0.0
0.812 0 0.0
0.8858 0 0.0
0.9596 0 0.0
1.0335 0 0.0
1.1073 0 0.0
1.1811 0 0.0
1.2549 0 0.0
1.3287 0 0.0
1.4026 0 0.0
1.4764 0 0.0
1.5502 0 0.0
1.624 0 0.0
1.6978 0 0.0
1.7717 0 0.0
1.8455 0 0.0
1.9193 0 0.0
1.9931 0 0.0
2.0669 0 0.0
2.1407 0 0.0
2.2146 0 0.0
2.2884 0 0.0
2.3622 0 0.0
2.436 0 0.0
2.5098 0 0.0
2.5837 0 0.0
2.6575 0 0.0
2.7313 0 0.0
2.8051 0 0.0
2.8789 0 0.0
2.9528 0 0.0
0 -0.1969 0.0
0.1476 -0.1969 0.0
0.2953 -0.1969 0.0
0.4429 -0.1969 0.0
0.5906 -0.1969 0.0
0.7382 -0.1969 0.0
0.8858 -0.1969 0.0
1.0335 -0.1969 0.0
1.1811 -0.1969 0.0
1.3287 -0.1969 0.0
1.4764 -0.1969 0.0
1.624 -0.1969 0.0
1.7717 -0.1969 0.0
1.9193 -0.1969 0.0
2.0669 -0.1969 0.0
2.2146 -0.1969 0.0
2.3622 -0.1969 0.0
2.5098 -0.1969 0.0
2.6575 -0.1969 0.0
2.8051 -0.1969 0.0
2.9528 -0.1969 0.0
0 -0.3937 0.0
0.0738 -0.3937 0.0
0.1476 -0.3937 0.0
0.2215 -0.3937 0.0
0.2953 -0.3937 0.0
0.3691 -0.3937 0.0
0.4429 -0.3937 0.0
0.5167 -0.3937 0.0
0.5906 -0.3937 0.0
0.6644 -0.3937 0.0
0.7382 -0.3937 0.0
0.812 -0.3937 0.0
0.8858 -0.3937 0.0
0.9596 -0.3937 0.0
1.0335 -0.3937 0.0
1.1073 -0.3937 0.0
1.1811 -0.3937 0.0
1.2549 -0.3937 0.0
1.3287 -0.3937 0.0
1.4026 -0.3937 0.0
1.4764 -0.3937 0.0
1.5502 -0.3937 0.0
1.624 -0.3937 0.0
1.6978 -0.3937 0.0
1.7717 -0.3937 0.0
1.8455 -0.3937 0.0
1.9193 -0.3937 0.0
1.9931 -0.3937 0.0
2.0669 -0.3937 0.0
2.1407 -0.3937 0.0
2.2146 -0.3937 0.0
2.2884 -0.3937 0.0
2.3622 -0.3937 0.0
2.436 -0.3937 0.0
2.5098 -0.3937 0.0
2.5837 -0.3937 0.0
2.6575 -0.3937 0.0
2.7313 -0.3937 0.0
2.8051 -0.3937 0.0
2.8789 -0.3937 0.0
2.9528 -0.3937 0.0
0 -0.5906 0.0
0.1476 -0.5906 0.0
0.2953 -0.5906 0.0
0.4429 -0.5906 0.0
0.5906 -0.5906 0.0
0.7382 -0.5906 0.0
0.8858 -0.5906 0.0
1.0335 -0.5906 0.0
1.1811 -0.5906 0.0
1.3287 -0.5906 0.0
1.4764 -0.5906 0.0
1.624 -0.5906 0.0
1.7717 -0.5906 0.0
1.9193 -0.5906 0.0
2.0669 -0.5906 0.0
2.2146 -0.5906 0.0
2.3622 -0.5906 0.0
2.5098 -0.5906 0.0
2.6575 -0.5906 0.0
2.8051 -0.5906 0.0
2.9528 -0.5906 0.0
0 -0.7874 0.0
0.0738 -0.7874 0.0
0.1476 -0.7874 0.0
0.2215 -0.7874 0.0
0.2953 -0.7874 0.0
0.3691 -0.7874 0.0
0.4429 -0.7874 0.0
0.5167 -0.7874 0.0
0.5906 -0.7874 0.0
0.6644 -0.7874 0.0
0.7382 -0.7874 0.0
0.812 -0.7874 0.0
0.8858 -0.7874 0.0
0.9596 -0.7874 0.0
1.0335 -0.7874 0.0
1.1073 -0.7874 0.0
1.1811 -0.7874 0.0
1.2549 -0.7874 0.0
1.3287 -0.7874 0.0
1.4026 -0.7874 0.0
1.4764 -0.7874 0.0
1.5502 -0.7874 0.0
1.624 -0.7874 0.0
1.6978 -0.7874 0.0
1.7717 -0.7874 0.0
1.8455 -0.7874 0.0
1.9193 -0.7874 0.0
1.9931 -0.7874 0.0
2.0669 -0.7874 0.0
2.1407 -0.7874 0.0
2.2146 -0.7874 0.0
2.2884 -0.7874 0.0
2.3622 -0.7874 0.0
2.436 -0.7874 0.0
2.5098 -0.7874 0.0
2.5837 -0.7874 0.0
2.6575 -0.7874 0.0
2.7313 -0.7874 0.0
2.8051 -0.7874 0.0
2.8789 -0.7874 0.0
2.9528 -0.7874 0.0
0 -0.9843 0.0
0.1476 -0.9843 0.0
0.2953 -0.9843 0.0
0.4429 -0.9843 0.0
0.5906 -0.9843 0.0
0.7382 -0.9843 0.0
0.8858 -0.9843 0.0
1.0335 -0.9843 0.0
1.1811 -0.9843 0.0
1.3287 -0.9843 0.0
1.4764 -0.9843 0.0
1.624 -0.9843 0.0
1.7717 -0.9843 0.0
1.9193 -0.9843 0.0
2.0669 -0.9843 0.0
2.2146 -0.9843 0.0
2.3622 -0.9843 0.0
2.5098 -0.9843 0.0
2.6575 -0.9843 0.0
2.8051 -0.9843 0.0
2.9528 -0.9843 0.0
0 -1.1811 0.0
0.0738 -1.1811 0.0
0.1476 -1.1811 0.0
0.2215 -1.1811 0.0
0.2953 -1.1811 0.0
0.3691 -1.1811 0.0
0.4429 -1.1811 0.0
0.5167 -1.1811 0.0
0.5906 -1.1811 0.0
0.6644 -1.1811 0.0
0.7382 -1.1811 0.0
0.812 -1.1811 0.0
0.8858 -1.1811 0.0
0.9596 -1.1811 0.0
1.0335 -1.1811 0.0
1.1073 -1.1811 0.0
1.1811 -1.1811 0.0
1.2549 -1.1811 0.0
1.3287 -1.1811 0.0
1.4026 -1.1811 0.0
1.4764 -1.1811 0.0
1.5502 -1.1811 0.0
1.624 -1.1811 0.0
1.6978 -1.1811 0.0
1.7717 -1.1811 0.0
1.8455 -1.1811 0.0
1.9193 -1.1811 0.0
1.9931 -1.1811 0.0
2.0669 -1.1811 0.0
2.1407 -1.1811 0.0
2.2146 -1.1811 0.0
2.2884 -1.1811 0.0
2.3622 -1.1811 0.0
2.436 -1.1811 0.0
2.5098 -1.1811 0.0
2.5837 -1.1811 0.0
2.6575 -1.1811 0.0
2.7313 -1.1811 0.0
2.8051 -1.1811 0.0
2.8789 -1.1811 0.0
2.9528 -1.1811 0.0
0 -1.378 0.0
0.1476 -1.378 0.0
0.2953 -1.378 0.0
0.4429 -1.378 0.0
0.5906 -1.378 0.0
0.7382 -1.378 0.0
0.8858 -1.378 0.0
1.0335 -1.378 0.0
1.1811 -1.378 0.0
1.3287 -1.378 0.0
1.4764 -1.378 0.0
1.624 -1.378 0.0
1.7717 -1.378 0.0
1.9193 -1.378 0.0
2.0669 -1.378 0.0
2.2146 -1.378 0.0
2.3622 -1.378 0.0
2.5098 -1.378 0.0
2.6575 -1.378 0.0
2.8051 -1.378 0.0
2.9528 -1.378 0.0
0 -1.5748 0.0
0.0738 -1.5748 0.0
0.1476 -1.5748 0.0
0.2215 -1.5748 0.0
0.2953 -1.5748 0.0
0.3691 -1.5748 0.0
0.4429 -1.5748 0.0
0.5167 -1.5748 0.0
0.5906 -1.5748 0.0
0.6644 -1.5748 0.0
0.7382 -1.5748 0.0
0.812 -1.5748 0.0
0.8858 -1.5748 0.0
0.9596 -1.5748 0.0
1.0335 -1.5748 0.0
1.1073 -1.5748 0.0
1.1811 -1.5748 0.0
1.2549 -1.5748 0.0
1.3287 -1.5748 0.0
1.4026 -1.5748 0.0
1.4764 -1.5748 0.0
1.5502 -1.5748 0.0
1.624 -1.5748 0.0
1.6978 -1.5748 0.0
1.7717 -1.5748 0.0
1.8455 -1.5748 0.0
1.9193 -1.5748 0.0
1.9931 -1.5748 0.0
2.0669 -1.5748 0.0
2.1407 -1.5748 0.0
2.2146 -1.5748 0.0
2.2884 -1.5748 0.0
2.3622 -1.5748 0.0
2.436 -1.5748 0.0
2.5098 -1.5748 0.0
2.5837 -1.5748 0.0
2.6575 -1.5748 0.0
2.7313 -1.5748 0.0
2.8051 -1.5748 0.0
2.8789 -1.5748 0.0
2.9528 -1.5748 0.0
0 -1.7717 0.0
0.1476 -1.7717 0.0
0.2953 -1.7717 0.0
0.4429 -1.7717 0.0
0.5906 -1.7717 0.0
0.7382 -1.7717 0.0
0.8858 -1.7717 0.0
1.0335 -1.7717 0.0
1.1811 -1.7717 0.0
1.3287 -1.7717 0.0
1.4764 -1.7717 0.0
1.624 -1.7717 0.0
1.7717 -1.7717 0.0
1.9193 -1.7717 0.0
2.0669 -1.7717 0.0
2.2146 -1.7717 0.0
2.3622 -1.7717 0.0
2.5098 -1.7717 0.0
2.6575 -1.7717 0.0
2.8051 -1.7717 0.0
2.9528 -1.7717 0.0
0 -1.9685 0.0
0.0738 -1.9685 0.0
0.1476 -1.9685 0.0
0.2215 -1.9685 0.0
0.2953 -1.9685 0.0
0.3691 -1.9685 0.0
0.4429 -1.9685 0.0
0.5167 -1.9685 0.0
0.5906 -1.9685 0.0
0.6644 -1.9685 0.0
0.7382 -1.9685 0.0
0.812 -1.9685 0.0
0.8858 -1.9685 0.0
0.9596 -1.9685 0.0
1.0335 -1.9685 0.0
1.1073 -1.9685 0.0
1.1811 -1.9685 0.0
1.2549 -1.9685 0.0
1.3287 -1.9685 0.0
1.4026 -1.9685 0.0
1.4764 -1.9685 0.0
1.5502 -1.9685 0.0
1.624 -1.9685 0.0
1.6978 -1.9685 0.0
1.7717 -1.9685 0.0
1.8455 -1.9685 0.0
1.9193 -1.9685 0.0
1.9931 -1.9685 0.0
2.0669 -1.9685 0.0
2.1407 -1.9685 0.0
2.2146 -1.9685 0.0
2.2884 -1.9685 0.0
2.3622 -1.9685 0.0
2.436 -1.9685 0.0
2.5098 -1.9685 0.0
2.5837 -1.9685 0.0
2.6575 -1.9685 0.0
2.7313 -1.9685 0.0
2.8051 -1.9685 0.0
2.8789 -1.9685 0.0
2.9528 -1.9685 0.0
0 -2.1654 0.0
0.1476 -2.1654 0.0
0.2953 -2.1654 0.0
0.4429 -2.1654 0.0
0.5906 -2.1654 0.0
0.7382 -2.1654 0.0
0.8858 -2.1654 0.0
1.0335 -2.1654 0.0
1.1811 -2.1654 0.0
1.3287 -2.1654 0.0
1.4764 -2.1654 0.0
1.624 -2.1654 0.0
1.7717 -2.1654 0.0
1.9193 -2.1654 0.0
2.0669 -2.1654 0.0
2.2146 -2.1654 0.0
2.3622 -2.1654 0.0
2.5098 -2.1654 0.0
2.6575 -2.1654 0.0
2.8051 -2.1654 0.0
2.9528 -2.1654 0.0
0 -2.3622 0.0
0.0738 -2.3622 0.0
0.1476 -2.3622 0.0
0.2215 -2.3622 0.0
0.2953 -2.3622 0.0
0.3691 -2.3622 0.0
0.4429 -2.3622 0.0
0.5167 -2.3622 0.0
0.5906 -2.3622 0.0
0.6644 -2.3622 0.0
0.7382 -2.3622 0.0
0.812 -2.3622 0.0
0.8858 -2.3622 0.0
0.9596 -2.3622 0.0
1.0335 -2.3622 0.0
1.1073 -2.3622 0.0
1.1811 -2.3622 0.0
1.2549 -2.3622 0.0
1.3287 -2.3622 0.0
1.4026 -2.3622 0.0
1.4764 -2.3622 0.0
1.5502 -2.3622 0.0
1.624 -2.3622 0.0
1.6978 -2.3622 0.0
1.7717 -2.3622 0.0
1.8455 -2.3622 0.0
1.9193 -2.3622 0.0
1.9931 -2.3622 0.0
2.0669 -2.3622 0.0
2.1407 -2.3622 0.0
2.2146 -2.3622 0.0
2.2884 -2.3622 0.0
2.3622 -2.3622 0.0
2.436 -2.3622 0.0
2.5098 -2.3622 0.0
2.5837 -2.3622 0.0
2.6575 -2.3622 0.0
2.7313 -2.3622 0.0
2.8051 -2.3622 0.0
2.8789 -2.3622 0.0
2.9528 -2.3622 0.0
0 -2.5591 0.0
0.1476 -2.5591 0.0
0.2953 -2.5591 0.0
0.4429 -2.5591 0.0
0.5906 -2.5591 0.0
0.7382 -2.5591 0.0
0.8858 -2.5591 0.0
1.0335 -2.5591 0.0
1.1811 -2.5591 0.0
1.3287 -2.5591 0.0
1.4764 -2.5591 0.0
1.624 -2.5591 0.0
1.7717 -2.5591 0.0
1.9193 -2.5591 0.0
2.0669 -2.5591 0.0
2.2146 -2.5591 0.0
2.3622 -2.5591 0.0
2.5098 -2.5591 0.0
2.6575 -2.5591 0.0
2.8051 -2.5591 0.0
2.9528 -2.5591 0.0
0 -2.7559 0.0
0.0738 -2.7559 0.0
0.1476 -2.7559 0.0
0.2215 -2.7559 0.0
0.2953 -2.7559 0.0
0.3691 -2.7559 0.0
0.4429 -2.7559 0.0
0.5167 -2.7559 0.0
0.5906 -2.7559 0.0
0.6644 -2.7559 0.0
0.7382 -2.7559 0.0
0.812 -2.7559 0.0
0.8858 -2.7559 0.0
0.9596 -2.7559 0.0
1.0335 -2.7559 0.0
1.1073 -2.7559 0.0
1.1811 -2.7559 0.0
1.2549 -2.7559 0.0
1.3287 -2.7559 0.0
1.4026 -2.7559 0.0
1.4764 -2.7559 0.0
1.5502 -2.7559 0.0
1.624 -2.7559 0.0
1.6978 -2.7559 0.0
1.7717 -2.7559 0.0
1.8455 -2.7559 0.0
1.9193 -2.7559 0.0
1.9931 -2.7559 0.0
2.0669 -2.7559 0.0
2.1407 -2.7559 0.0
2.2146 -2.7559 0.0
2.2884 -2.7559 0.0
2.3622 -2.7559 0.0
2.436 -2.7559 0.0
2.5098 -2.7559 0.0
2.5837 -2.7559 0.0
2.6575 -2.7559 0.0
2.7313 -2.7559 0.0
2.8051 -2.7559 0.0
2.8789 -2.7559 0.0
2.9528 -2.7559 0.0
0 -2.9528 0.0
0.1476 -2.9528 0.0
0.2953 -2.9528 0.0
0.4429 -2.9528 0.0
0.5906 -2.9528 0.0
0.7382 -2.9528 0.0
0.8858 -2.9528 0.0
1.0335 -2.9528 0.0
1.1811 -2.9528 0.0
1.3287 -2.9528 0.0
1.4764 -2.9528 0.0
1.624 -2.9528 0.0
1.7717 -2.9528 0.0
1.9193 -2.9528 0.0
2.0669 -2.9528 0.0
2.2146 -2.9528 0.0
2.3622 -2.9528 0.0
2.5098 -2.9528 0.0
2.6575 -2.9528 0.0
2.8051 -2.9528 0.0
2.9528 -2.9528 0.0
0 -3.1496 0.0
0.0738 -3.1496 0.0
0.1476 -3.1496 0.0
0.2215 -3.1496 0.0
0.2953 -3.1496 0.0
0.3691 -3.1496 0.0
0.4429 -3.1496 0.0
0.5167 -3.1496 0.0
0.5906 -3.1496 0.0
0.6644 -3.1496 0.0
0.7382 -3.1496 0.0
0.812 -3.1496 0.0
0.8858 -3.1496 0.0
0.9596 -3.1496 0.0
1.0335 -3.1496 0.0
1.1073 -3.1496 0.0
1.1811 -3.1496 0.0
1.2549 -3.1496 0.0
1.3287 -3.1496 0.0
1.4026 -3.1496 0.0
1.4764 -3.1496 0.0
1.5502 -3.1496 0.0
1.624 -3.1496 0.0
1.6978 -3.1496 0.0
1.7717 -3.1496 0.0
1.8455 -3.1496 0.0
1.9193 -3.1496 0.0
1.9931 -3.1496 0.0
2.0669 -3.1496 0.0
2.1407 -3.1496 0.0
2.2146 -3.1496 0.0
2.2884 -3.1496 0.0
2.3622 -3.1496 0.0
2.436 -3.1496 0.0
2.5098 -3.1496 0.0
2.5837 -3.1496 0.0
2.6575 -3.1496 0.0
2.7313 -3.1496 0.0
2.8051 -3.1496 0.0
2.8789 -3.1496 0.0
2.9528 -3.1496 0.0
0 -3.3465 0.0
0.1476 -3.3465 0.0
0.2953 -3.3465 0.0
0.4429 -3.3465 0.0
0.5906 -3.3465 0.0
[...]
POINT_DATA 971
SCALARS Displacement_R double 1
LOOKUP_TABLE default
0
7.50418e-06
1.50064e-05
2.2515e-05
3.00079e-05
3.74932e-05
4.49695e-05
5.24345e-05
5.98974e-05
6.73356e-05
7.47586e-05
8.21642e-05
8.95521e-05
9.692e-05
0.000104278
0.000111605
0.00011891
0.000126192
0.000133452
0.000140698
0.000147912
0.000155103
0.000162272
0.000169419
0.000176556
0.000183662
0.00019075
0.00019782
0.000204875
0.000211916
0.000218956
0.000225976
0.000232989
0.000239998
0.000247004
0.000254021
0.000261031
0.000268048
0.00027507
0.000282101
0.00028915
0
1.49787e-05
2.99556e-05
4.48984e-05
5.98164e-05
7.4679e-05
8.94874e-05
0.000104244
0.000118923
0.00013353
0.000148074
0.000162534
0.000176934
0.000191259
0.000205527
0.000219755
0.000233936
0.000248093
0.000262249
0.0002764
0.000290582
0
7.50444e-06
1.50075e-05
2.25181e-05
3.00148e-05
3.75061e-05
4.49913e-05
5.24687e-05
5.99478e-05
6.74066e-05
7.4855e-05
8.22912e-05
8.97152e-05
9.71253e-05
0.000104532
0.000111913
0.000119279
0.000126629
0.000133963
0.000141291
0.000148592
0.000155877
0.000163146
0.000170398
0.000177646
0.000184867
0.000192075
0.000199269
0.000206449
0.000213618
0.000220785
0.000227932
0.000235071
0.000242202
0.000249328
0.000256458
0.000263577
0.000270695
0.000277816
0.000284943
0.00029209
0
1.50854e-05
3.01712e-05
4.52274e-05
6.02651e-05
7.52553e-05
9.02006e-05
0.000105104
0.00011994
0.000134714
0.000149433
0.000164076
0.000178663
0.000193177
0.000207631
0.000222041
0.000236396
0.000250715
0.000265024
0.000279323
0.000293656
0
7.59937e-06
1.51974e-05
2.28033e-05
3.03952e-05
3.7982e-05
4.55627e-05
5.3136e-05
6.07112e-05
6.82664e-05
7.58111e-05
8.3344e-05
9.08644e-05
9.83711e-05
0.000105874
0.000113351
0.000120813
0.000128258
0.000135686
0.000143107
0.0001505
0.000157875
0.000165232
0.000172571
0.000179902
0.000187205
0.000194491
0.00020176
0.000209013
0.00021625
0.000223483
0.000230693
0.00023789
0.000245078
0.000252257
0.00025944
0.000266611
0.000273781
0.000280954
0.000288136
0.000295339
0
1.5339e-05
3.06776e-05
4.59844e-05
6.12697e-05
7.6503e-05
9.16854e-05
0.000106819
0.000121875
0.000136858
0.000151773
0.000166596
0.000181347
0.000196007
0.000210588
0.000225107
0.000239554
0.000253954
0.000268333
0.000282698
0.000297097
0
7.7513e-06
1.5501e-05
2.32583e-05
3.10006e-05
3.87369e-05
4.64659e-05
5.4186e-05
6.19064e-05
6.96046e-05
7.729e-05
8.4961e-05
9.26166e-05
0.000100255
0.000107887
0.000115489
0.000123071
0.000130633
0.000138173
0.0001457
0.000153195
0.000160666
0.000168114
0.000175537
0.000182947
0.000190323
0.000197676
0.000205005
0.000212313
0.000219599
0.000226875
0.000234123
0.000241354
0.000248571
0.000255776
0.000262981
0.000270171
0.000277358
0.000284546
0.00029174
0.000298953
0
1.56793e-05
3.1356e-05
4.69956e-05
6.26063e-05
7.81545e-05
9.36388e-05
0.000109058
0.000124382
0.000139611
0.000154748
0.000169767
0.000184687
0.000199485
0.000214177
0.000228779
0.000243283
0.000257715
0.000272108
0.000286468
0.000300848
0
7.93478e-06
1.58676e-05
2.38076e-05
3.17313e-05
3.96477e-05
4.75549e-05
5.54513e-05
6.33456e-05
7.12148e-05
7.90678e-05
8.69029e-05
9.47186e-05
0.000102513
0.000110296
0.000118043
0.000125766
0.000133462
0.000141129
0.000148778
0.000156387
0.000163965
0.000171512
0.000179027
0.00018652
0.000193971
0.00020139
0.000208778
0.000216135
0.000223463
0.000230772
0.000238046
0.000245295
0.000252522
0.00025973
0.000266931
0.00027411
0.000281281
0.000288447
0.000295614
0.000302795
0
1.60604e-05
3.21158e-05
4.81284e-05
6.41042e-05
8.0006e-05
9.58295e-05
0.000111571
0.000127195
0.000142699
0.000158085
0.000173321
0.000188423
0.000203367
0.000218167
0.000232838
0.000247373
0.000261799
0.00027615
0.000290437
0.000304716
0
8.1271e-06
1.62519e-05
2.43837e-05
3.24979e-05
4.06037e-05
4.86988e-05
5.67813e-05
6.48598e-05
7.29104e-05
8.09419e-05
8.89523e-05
9.69395e-05
0.000104902
0.000112847
0.000120753
0.000128627
0.000136469
0.000144277
0.000152059
0.000159793
0.000167488
0.000175143
0.000182758
0.000190341
0.000197873
0.000205362
0.000212809
0.000220216
0.000227581
0.000234918
0.000242206
0.000249459
0.000256679
0.000263869
0.000271041
0.000278181
0.000285303
0.000292411
0.000299511
0.000306618
0
1.64336e-05
3.28607e-05
4.92414e-05
6.55802e-05
8.1837e-05
9.80049e-05
0.000114077
0.000130014
0.00014581
0.000161461
0.000176931
0.00019223
0.000207332
0.000222242
0.000236975
0.00025152
0.000265904
0.000280161
0.000294305
0.000308397
0
8.30043e-06
1.65985e-05
2.49036e-05
3.31906e-05
4.14689e-05
4.97359e-05
5.79898e-05
6.62389e-05
7.4459e-05
8.26585e-05
9.08355e-05
9.8987e-05
0.000107111
0.000115216
0.000123278
0.000131305
0.000139295
0.000147245
0.000155164
0.000163029
0.000170848
0.000178619
0.00018634
0.000194021
0.000201639
0.000209203
0.000216714
0.000224171
0.000231575
0.000238934
0.000246232
0.000253479
0.000260678
0.000267831
0.000274952
0.000282026
0.000289066
0.000296079
0.000303071
0.000310057
0
1.67332e-05
3.34608e-05
5.01429e-05
6.67844e-05
8.33443e-05
9.98145e-05
0.000116186
0.000132416
0.000148493
0.000164408
0.000180119
0.000195628
0.000210898
0.00022593
0.000240727
0.000255273
0.000269588
0.000283705
0.00029764
0.000311456
0
8.41546e-06
1.68288e-05
2.525e-05
3.36537e-05
4.205e-05
5.04361e-05
5.88107e-05
6.71821e-05
7.55263e-05
8.38513e-05
9.21557e-05
0.000100436
0.000108691
0.000116927
0.000125121
0.000133279
0.000141401
0.000149481
0.000157529
0.000165518
0.000173458
0.000181345
0.000189176
0.000196959
0.00020467
0.000212318
0.0002199
0.000227415
0.000234861
0.000242248
0.000249556
0.000256795
0.000263967
0.000271073
0.000278125
0.00028511
0.000292041
0.000298924
0.000305766
0.000312583
0
1.68656e-05
3.373e-05
5.0557e-05
6.73551e-05
8.40856e-05
0.000100742
0.000117316
0.000133762
0.000150065
0.000166211
0.000182148
0.000197868
0.000213322
0.000228495
0.000243377
0.000257935
0.000272178
0.000286128
0.000299794
0.000313244
0
8.41661e-06
1.6832e-05
2.52568e-05
3.36665e-05
4.2072e-05
5.04712e-05
5.88634e-05
6.72577e-05
7.56306e-05
8.39905e-05
9.23366e-05
0.000100665
0.000108976
0.000117275
0.000125539
0.000133774
0.000141979
0.000150149
0.000158291
0.000166379
0.000174421
0.000182411
0.000190345
0.000198229
0.000206038
0.000213777
0.000221443
0.00022903
0.000236535
0.000243966
0.000251298
0.000258542
0.000265695
0.000272758
0.000279741
0.000286628
0.00029343
0.000300153
0.000306806
0.000313408
0
1.67019e-05
3.34112e-05
5.01004e-05
6.6786e-05
8.34366e-05
0.000100052
0.000116627
0.00013312
0.000149516
0.000165794
0.000181897
0.000197804
0.000213449
0.000228795
0.000243808
0.000258427
0.000272636
0.000286431
0.000299807
0.000312814
0
8.23036e-06
1.6461e-05
2.47034e-05
3.29353e-05
4.11683e-05
4.94019e-05
5.76367e-05
6.58828e-05
7.41183e-05
8.23527e-05
9.05862e-05
9.88163e-05
0.000107043
0.000115274
0.000123486
0.000131685
0.000139872
0.00014804
0.000156198
0.000164316
0.000172405
0.000180454
0.000188461
0.000196427
0.000204326
0.000212159
0.00021992
0.0002276
0.000235193
0.0002427
0.000250095
0.000257379
0.00026455
0.000271599
0.000278536
0.00028534
0.000292022
0.000298587
0.000305035
0.000311372
0
1.60798e-05
3.21795e-05
4.82855e-05
6.44261e-05
8.05834e-05
9.67688e-05
0.000112989
0.00012921
0.000145426
0.00016162
0.000177731
0.000193731
0.000209534
0.00022508
0.000240296
0.000255078
0.00026936
0.000283086
0.000296199
0.000308733
0
7.77002e-06
1.55423e-05
2.33291e-05
3.11115e-05
3.8902e-05
4.67025e-05
5.45147e-05
6.23507e-05
7.0191e-05
7.8047e-05
8.59203e-05
9.38108e-05
0.00010172
0.000109657
0.000117601
0.000125561
0.000133537
0.000141525
0.000149534
0.000157537
0.000165542
0.000173541
0.00018153
0.000189508
0.000197449
0.000205348
0.000213199
0.000220984
0.000228696
0.000236326
0.000243842
0.00025124
0.000258505
0.000265626
0.000272595
0.000279384
0.000285991
0.00029241
0.000298651
0.000304753
0
1.48227e-05
2.96789e-05
4.45719e-05
5.95439e-05
7.45949e-05
8.9753e-05
0.000105042
0.000120451
0.00013599
0.00015166
0.000167417
0.00018324
0.000199041
0.000214738
0.00023022
0.000245319
0.000259886
0.000273778
0.000286843
0.000298972
0
6.95096e-06
1.3906e-05
2.08777e-05
2.78515e-05
3.48401e-05
4.18478e-05
4.88774e-05
5.59432e-05
6.30286e-05
7.01476e-05
7.73026e-05
8.44978e-05
9.17353e-05
9.90288e-05
0.00010636
0.000113742
0.000121177
0.000128664
0.000136216
0.000143811
0.00015146
0.000159157
0.000166902
0.000174695
0.000182514
0.000190351
0.000198203
0.000206044
0.000213865
0.000221643
0.000229344
0.000236939
0.000244413
0.000251724
0.000258875
0.000265809
0.000272531
0.000278999
0.00028518
0.000290975
0
1.27812e-05
2.5606e-05
3.84921e-05
5.14922e-05
6.46242e-05
7.79322e-05
9.14604e-05
0.000105224
0.000119264
0.000133615
0.000148274
0.000163262
0.000178536
0.000194041
0.000209669
0.000225201
0.000240357
0.00025478
0.000268101
0.000280176
0
5.71751e-06
1.14401e-05
1.71793e-05
2.29254e-05
2.86896e-05
3.44782e-05
4.02944e-05
4.6153e-05
5.20411e-05
5.7974e-05
6.39545e-05
6.99907e-05
7.6085e-05
8.22549e-05
8.84855e-05
9.47951e-05
0.000101185
0.000107666
0.000114249
0.000120925
0.000127705
0.000134598
0.000141605
0.000148742
0.00015599
0.000163359
0.00017085
0.00017845
0.000186158
0.000193953
0.000201807
0.000209671
0.000217524
0.000225275
0.000232864
0.000240195
0.000247156
0.000253795
0.000260041
0.000266187
0
9.89601e-06
1.98359e-05
2.98443e-05
3.99738e-05
5.02519e-05
6.07292e-05
7.14603e-05
8.24821e-05
9.38583e-05
0.000105658
0.000117933
0.000130769
0.000144217
0.00015834
0.00017317
0.000188633
0.000204538
0.000220451
0.000235417
0.00024808
0
4.07531e-06
8.15526e-06
1.22486e-05
1.63497e-05
2.04672e-05
2.46069e-05
2.87717e-05
3.29741e-05
3.7205e-05
4.14781e-05
4.57953e-05
5.01661e-05
5.45919e-05
5.90902e-05
6.36497e-05
6.82901e-05
7.30118e-05
7.78314e-05
8.27552e-05
8.77903e-05
9.2942e-05
9.82357e-05
0.000103669
0.00010928
0.000115051
0.000121025
0.000127199
0.000133614
0.000140266
0.000147204
0.000154408
0.000161906
0.000169706
0.000177757
0.000186073
0.000194418
0.000202929
0.000210824
0.000218271
0.0002239
0
6.25656e-06
1.25453e-05
1.88863e-05
2.53182e-05
3.18642e-05
3.85639e-05
4.54615e-05
5.2593e-05
6.00164e-05
6.78015e-05
7.60173e-05
8.47748e-05
9.41899e-05
0.000104432
0.000115719
0.000128288
0.000142408
0.000158244
0.000175367
0.000192479
0
2.11311e-06
4.22889e-06
6.3521e-06
8.48013e-06
1.06176e-05
1.27681e-05
1.4933e-05
1.71194e-05
1.93228e-05
2.15506e-05
2.38043e-05
2.60889e-05
2.8406e-05
3.07648e-05
3.31603e-05
3.56031e-05
3.80947e-05
4.06441e-05
4.32566e-05
4.59367e-05
4.86896e-05
5.1531e-05
5.44624e-05
5.75102e-05
6.06673e-05
6.39701e-05
6.74193e-05
7.10638e-05
7.49039e-05
7.90221e-05
8.34077e-05
8.81884e-05
9.33711e-05
9.91578e-05
0.00010556
0.000112908
0.000121253
0.000131225
0.000141288
0.000153412
0
2.12423e-06
4.26014e-06
6.41525e-06
8.60326e-06
1.08325e-05
1.31168e-05
1.54711e-05
1.79078e-05
2.04468e-05
2.31123e-05
2.59301e-05
2.89434e-05
3.22051e-05
3.58031e-05
3.98792e-05
4.46646e-05
5.0594e-05
5.85073e-05
7.0136e-05
9.01001e-05
0
0
0
0
0
0
0
0
0
0
0
0
0
0
0
0
0
0
0
0
0
0
0
0
0
0
0
0
0
0
0
0
0
0
0
0
0
0
0
0
0
SCALARS Displacement_Z double 1
LOOKUP_TABLE default
0.00176669
0.00176669
0.00176671
0.00176674
0.00176679
0.00176684
0.0017669
0.00176697
0.00176705
0.00176714
0.00176723
0.00176732
0.00176742
0.00176752
0.00176761
0.0017677
0.00176779
0.00176786
0.00176793
0.00176798
0.00176802
0.00176804
0.00176804
0.00176802
0.00176798
0.00176791
0.00176781
0.00176768
0.00176752
0.00176733
0.0017671
0.00176683
0.00176653
0.0017662
0.00176583
0.00176543
0.00176499
0.00176453
0.00176403
0.00176352
0.00176299
0.00170515
0.00170518
0.00170529
0.00170546
0.00170569
0.00170596
0.00170627
0.00170659
0.0017069
0.00170719
0.00170743
0.0017076
0.00170767
0.00170764
0.00170746
0.00170714
0.00170666
0.00170601
0.0017052
0.00170424
0.00170318
0.0016436
0.00164361
0.00164364
0.0016437
0.00164378
0.00164388
0.001644
0.00164413
0.00164429
0.00164446
0.00164464
0.00164484
0.00164504
0.00164525
0.00164547
0.00164568
0.0016459
0.00164611
0.00164631
0.0016465
0.00164667
0.00164683
0.00164697
0.00164708
0.00164717
0.00164722
0.00164724
0.00164723
0.00164718
0.00164709
0.00164695
0.00164677
0.00164654
0.00164627
0.00164596
0.00164559
0.00164518
0.00164473
0.00164424
0.00164371
0.00164315
0.00158183
0.00158189
0.00158205
0.00158231
0.00158266
0.00158309
0.00158358
0.0015841
0.00158464
0.00158517
0.00158565
0.00158607
0.00158639
0.00158658
0.00158662
0.00158649
0.00158617
0.00158565
0.00158492
0.00158399
0.00158287
0.00151981
0.00151982
0.00151987
0.00151995
0.00152006
0.0015202
0.00152036
0.00152056
0.00152078
0.00152102
0.00152128
0.00152156
0.00152185
0.00152216
0.00152248
0.0015228
0.00152313
0.00152345
0.00152377
0.00152409
0.00152439
0.00152467
0.00152493
0.00152517
0.00152538
0.00152556
0.0015257
0.00152581
0.00152587
0.00152588
0.00152585
0.00152577
0.00152563
0.00152544
0.00152518
0.00152487
0.00152451
0.00152408
0.00152358
0.00152303
0.00152242
0.00145737
0.00145744
0.00145766
0.00145801
0.00145849
0.00145907
0.00145974
0.00146048
0.00146125
0.00146203
0.00146278
0.00146348
0.00146407
0.00146454
0.00146485
0.00146496
0.00146485
0.0014645
0.00146388
0.00146298
0.00146177
0.00139451
0.00139454
0.0013946
0.0013947
0.00139484
0.00139503
0.00139525
0.00139551
0.0013958
0.00139612
0.00139647
0.00139685
0.00139725
0.00139767
0.00139811
0.00139857
0.00139903
0.00139949
0.00139996
0.00140042
0.00140087
0.00140131
0.00140174
0.00140213
0.00140251
0.00140285
0.00140315
0.00140341
0.00140362
0.00140378
0.00140389
0.00140393
0.00140391
0.00140383
0.00140367
0.00140343
0.00140312
0.00140273
0.00140225
0.00140168
0.00140102
0.00133113
0.00133122
0.0013315
0.00133197
0.00133259
0.00133337
0.00133428
0.00133528
0.00133636
0.00133746
0.00133857
0.00133963
0.0013406
0.00134144
0.00134211
0.00134256
0.00134275
0.00134264
0.00134219
0.00134136
0.00134013
0.00126723
0.00126726
0.00126734
0.00126748
0.00126766
0.0012679
0.00126819
0.00126853
0.00126891
0.00126934
0.00126981
0.00127031
0.00127085
0.00127142
0.00127202
0.00127264
0.00127327
0.00127392
0.00127458
0.00127524
0.0012759
0.00127655
0.00127719
0.00127781
0.0012784
0.00127895
0.00127947
0.00127995
0.00128037
0.00128074
0.00128104
0.00128127
0.00128142
0.00128149
0.00128148
0.00128137
0.00128115
0.00128084
0.00128041
0.00127986
0.0012792
0.00120275
0.00120287
0.00120324
0.00120384
0.00120466
0.00120568
0.00120688
0.00120823
0.00120969
0.00121123
0.0012128
0.00121434
0.00121582
0.00121717
0.00121834
0.00121926
0.00121988
0.00122014
0.00121998
0.00121935
0.00121819
0.00113773
0.00113776
0.00113787
0.00113804
0.00113828
0.00113859
0.00113896
0.0011394
0.00113989
0.00114045
0.00114106
0.00114172
0.00114243
0.00114318
0.00114398
0.00114481
0.00114567
0.00114656
0.00114746
0.00114838
0.0011493
0.00115023
0.00115114
0.00115205
0.00115293
0.00115378
0.00115459
0.00115536
0.00115607
0.00115672
0.00115729
0.00115779
0.00115819
0.0011585
0.0011587
0.00115879
0.00115875
0.00115858
0.00115827
0.00115781
0.0011572
0.00107212
0.00107228
0.00107274
0.0010735
0.00107455
0.00107587
0.00107743
0.00107919
0.00108113
0.0010832
0.00108535
0.00108751
0.00108964
0.00109166
0.0010935
0.00109507
0.00109631
0.00109712
0.00109743
0.00109715
0.00109621
0.00100602
0.00100607
0.0010062
0.00100641
0.00100671
0.0010071
0.00100756
0.00100811
0.00100873
0.00100943
0.00101021
0.00101105
0.00101196
0.00101293
0.00101395
0.00101503
0.00101616
0.00101732
0.00101852
0.00101975
0.001021
0.00102226
0.00102353
0.00102479
0.00102604
0.00102726
0.00102845
0.0010296
0.00103069
0.00103172
0.00103268
0.00103354
0.0010343
0.00103495
0.00103548
0.00103586
0.0010361
0.00103618
0.00103608
0.0010358
0.00103532
0.000939425
0.000939615
0.000940182
0.000941118
0.000942413
0.000944045
0.000945992
0.000948224
0.000950702
0.000953381
0.000956209
0.000959121
0.000962048
0.000964904
0.000967603
0.000970045
0.000972123
0.000973726
0.000974739
0.000975047
0.000974534
0.000872486
0.000872537
0.000872692
0.000872949
0.000873308
0.000873768
0.000874327
0.000874985
0.00087574
0.000876587
0.000877526
0.000878554
0.000879666
0.00088086
0.000882133
0.000883476
0.000884886
0.000886358
0.000887884
0.000889461
0.000891075
0.000892722
0.000894391
0.000896075
0.000897762
0.00089944
0.000901097
0.000902721
0.000904299
0.000905816
0.00090726
0.000908612
0.000909857
0.000910979
0.000911962
0.000912789
0.00091344
0.000913901
0.000914152
0.000914179
0.000913963
0.000805258
0.000805478
0.000806139
0.000807233
0.000808753
0.000810683
0.000813003
0.000815692
0.000818712
0.000822025
0.00082558
0.000829311
0.000833145
0.000836989
0.000840738
0.000844275
0.00084746
0.000850148
0.00085218
0.000853388
0.000853614
0.000737987
0.000738045
0.000738219
0.00073851
0.000738916
0.000739437
0.000740072
0.00074082
0.000741681
0.000742652
0.000743732
0.000744919
0.00074621
0.000747603
0.000749096
0.000750682
0.000752359
0.000754122
0.000755965
0.000757885
0.00075987
0.000761914
0.000764008
0.000766144
0.000768312
0.000770495
0.000772683
0.000774862
0.000777015
0.000779127
0.00078118
0.000783151
0.000785022
0.000786772
0.000788376
0.000789816
0.00079106
0.000792089
0.000792876
0.000793392
0.000793613
0.000670813
0.000671054
0.000671775
0.000672974
0.000674649
0.00067679
0.000679389
0.000682435
0.000685902
0.000689764
0.000693985
0.000698507
0.000703266
0.000708169
0.000713105
0.000717942
0.000722508
0.000726618
0.000730061
0.000732606
0.000733993
0.00060409
0.000604151
0.000604334
0.000604639
0.000605066
0.000605614
0.000606284
0.000607075
0.00060799
0.000609025
0.00061018
0.000611456
0.000612852
0.000614367
0.000616001
0.00061775
0.000619613
0.000621587
0.00062367
0.000625861
0.00062815
0.000630533
0.000633003
0.000635555
0.00063818
0.000640862
0.00064359
0.000646353
0.000649131
0.000651908
0.000654666
0.000657377
0.000660015
0.000662558
0.000664971
0.00066723
0.000669289
0.000671123
0.00067269
0.000673967
0.00067491
0.000538071
0.000538313
0.000539037
0.000540246
0.000541944
0.000544132
0.000546815
0.000549997
0.000553675
0.000557845
0.000562498
0.000567604
0.000573126
0.000578992
0.000585109
0.000591348
0.000597522
0.00060341
0.000608732
0.000613151
0.000616368
0.000473232
0.00047329
0.000473464
0.000473755
0.000474162
0.000474687
0.000475329
0.00047609
0.000476973
0.000477975
0.0004791
0.000480348
0.000481721
0.000483221
0.000484851
0.000486609
0.000488497
0.000490518
0.000492672
0.000494962
0.000497383
0.000499936
0.000502621
0.000505434
0.000508376
0.000511432
0.000514599
0.000517866
0.00052122
0.000524646
0.000528126
0.000531631
0.000535136
0.00053861
0.00054202
0.000545328
0.000548483
0.000551436
0.000554135
0.000556496
0.000558469
0.000409947
0.000410163
0.000410815
0.000411905
0.000413446
0.000415448
0.000417929
0.00042091
0.000424411
0.00042846
0.000433086
0.000438303
0.000444134
0.000450564
0.000457563
0.000465049
0.000472862
0.000480775
0.000488487
0.000495574
0.000501383
0.0003488
0.000348848
0.000348994
0.000349238
0.00034958
0.000350021
0.000350563
0.000351206
0.000351955
0.000352808
0.00035377
0.000354843
0.00035603
0.000357335
0.000358764
0.000360317
0.000362001
0.00036382
0.000365781
0.000367891
0.000370153
0.000372572
0.000375159
0.000377915
0.000380855
0.000383971
0.000387275
0.000390765
0.000394443
0.000398304
0.000402344
0.000406539
0.000410866
0.000415309
0.000419801
0.000424347
0.000428817
0.000433244
0.000437483
0.000441561
0.000445374
0.000290268
0.000290435
0.000290939
0.000291785
0.000292987
0.000294559
0.000296526
0.000298919
0.000301773
0.000305139
0.000309079
0.000313661
0.000318974
0.000325107
0.000332155
0.000340196
0.000349229
0.00035913
0.000369556
0.000379978
0.000390059
0.000234991
0.000235025
0.000235127
0.000235298
0.000235538
0.000235848
0.00023623
0.000236684
0.000237213
0.000237818
0.000238503
0.00023927
0.000240123
0.000241065
0.000242103
0.000243239
0.000244481
0.000245835
0.000247309
0.000248914
0.000250657
0.00025255
0.000254607
0.000256841
0.000259274
0.000261915
0.00026479
0.000267916
0.000271321
0.000275025
0.000279062
0.000283433
0.000288177
0.000293279
0.000298781
0.000304567
0.000310738
0.000316923
0.000323284
0.000329364
0.000335073
0.000183487
0.000183591
0.000183905
0.000184432
0.000185184
0.000186171
0.000187413
0.000188937
0.000190775
0.000192976
0.000195607
0.00019875